
                                 *****************
                                 * O   R   C   A *
                                 *****************

                                            #,                                       
                                            ###                                      
                                            ####                                     
                                            #####                                    
                                            ######                                   
                                           ########,                                 
                                     ,,################,,,,,                         
                               ,,#################################,,                 
                          ,,##########################################,,             
                       ,#########################################, ''#####,          
                    ,#############################################,,   '####,        
                  ,##################################################,,,,####,       
                ,###########''''           ''''###############################       
              ,#####''   ,,,,##########,,,,          '''####'''          '####       
            ,##' ,,,,###########################,,,                        '##       
           ' ,,###''''                  '''############,,,                           
         ,,##''                                '''############,,,,        ,,,,,,###''
      ,#''                                            '''#######################'''  
     '                                                          ''''####''''         
             ,#######,   #######,   ,#######,      ##                                
            ,#'     '#,  ##    ##  ,#'     '#,    #''#        ,####,    ,#,          
            ##       ##  ##   ,#'  ##            #'  '#       #'       ,# #          
            ##       ##  #######   ##           ,######,      #####,      #          
            '#,     ,#'  ##    ##  '#,     ,#' ,#      #,     #,   #      #          
             '#######'   ##     ##  '#######'  #'      '#     '####' #    #          



                #########################################################
                #                        -***-                          #
                #          Department of theory and spectroscopy        #
                #                                                       #
                #                      Frank Neese                      #
                #                                                       #
                #     Directorship, Architecture, Infrastructure        #
                #                    SHARK, DRIVERS                     #
                #        Core code/Algorithms in most modules           #
                #                                                       #
                #        Max Planck Institute fuer Kohlenforschung      #
                #                Kaiser Wilhelm Platz 1                 #
                #                 D-45470 Muelheim/Ruhr                 #
                #                      Germany                          #
                #                                                       #
                #                  All rights reserved                  #
                #                        -***-                          #
                #########################################################


                         Program Version 6.1.0  -  RELEASE   -
                                (GIT: $679e74b7b5$)
                          ($2025-06-10 18:02:51 +0200$)


 With contributions from (in alphabetic order):
[Max-Planck-Institut fuer Kohlenforschung]                               
  Daniel Aravena         : Magnetic Suceptibility                        
  Michael Atanasov       : Ab Initio Ligand Field Theory (pilot matlab implementation)
  Alexander A. Auer      : GIAO ZORA, VPT2 properties, NMR spectrum      
  Ute Becker             : All parallelization in ORCA, NUMFREQ, NUMCALC 
  Giovanni Bistoni       : ED, misc. LED, open-shell LED, HFLD           
  Dmytro Bykov           : pre 5.0 version of the SCF Hessian            
  Marcos Casanova-Páez   : Triplet and SCS-CIS(D). UHF-(DLPNO)-IP/EA/STEOM-CCSD. UHF-CVS-IP/STEOM-CCSD   
  Vijay G. Chilkuri      : MRCI spin determinant printing, contributions to CSF-ICE 
  Pauline Colinet        : FMM embedding                                 
  Dipayan Datta          : RHF DLPNO-CCSD density                        
  Achintya Kumar Dutta   : EOM-CC, STEOM-CC                              
  Nicolas Foglia         : Exact transition moments, OPA infrastructure, MCD improvements    
  Dmitry Ganyushin       : Spin-Orbit,Spin-Spin,Magnetic field MRCI      
  Miquel Garcia-Rates    : C-PCM and meta-GGA Hessian, CCSD/C-PCM, Gaussian charge scheme 
  Tiago L. C. Gouveia    : GS-ROHF, GS-ROCIS                             
  Yang Guo               : DLPNO-NEVPT2, F12-NEVPT2, CIM, IAO-localization        
  Andreas Hansen         : Spin unrestricted coupled pair/coupled cluster methods 
  Ingolf Harden          : AUTO-CI MPn and infrastructure                
  Benjamin Helmich-Paris : MC-RPA, TRAH-(SCF,CASSCF), AVAS, COSX integrals, SCF dyn. polar., MC-PDFT, srDFT 
  Lee Huntington         : MR-EOM, pCC                                   
  Robert Izsak           : Overlap fitted RIJCOSX, COSX-SCS-MP3, EOM     
  Riya Kayal             : Wick's Theorem for AUTO-CI, AUTO-CI UHF-CCSDT 
  Emily Kempfer          : AUTO-CI RHF CISDT and CCSDT, approximate NEVPT4
  Christian Kollmar      : KDIIS, OOCD, Brueckner-CCSD(T), CCSD density, CASPT2, CASPT2-K, improved NEVPT2 
  Axel Koslowski         : Symmetry handling                             
  Simone Kossmann        : meta-GGA functionals, TD-DFT gradient, OOMP2, (MP2 Hessian; deprecated post 5.0) 
  Lucas Lang             : DCDCAS, Hyperfine gauge corrections, ICE-SOC+SSC
  Marvin Lechner         : AUTO-CI (C++ implementation), FIC-MRCC        
  Spencer Leger          : CASSCF response                               
  Dagmar Lenk            : GEPOL surface, SMD, ORCA-2-JSON               
  Dimitrios Liakos       : Extrapolation schemes; Compound Job, Property file
  Dimitrios Manganas     : Further ROCIS development; embedding schemes. LFT, Crystal Embedding 
  Dimitrios Pantazis     : SARC Basis sets                               
  Anastasios Papadopoulos: AUTO-CI, single reference methods and gradients 
  Taras Petrenko         : pre 6.0 DFT Hessian and TD-DFT gradient,  ECA, NRVS 
  Petra Pikulova         : Analytic Raman intensities                    
  Peter Pinski           : DLPNO-MP2, DLPNO-MP2 Gradient                 
  Shashank Vittal Rao    : ES-AILFT, MagRelax                            
  Christoph Reimann      : Effective Core Potentials                     
  Marius Retegan         : Local ZFS, SOC                                
  Christoph Riplinger    : Optimizer, TS searches, QM/MM, DLPNO-CCSD(T), (RO)-DLPNO pert. Triples 
  Michael Roemelt        : Original ROCIS implementation, recursive CI coupling coefficients
  Masaaki Saitow         : Open-shell DLPNO-CCSD energy and density      
  Barbara Sandhoefer     : DKH picture change effects                    
  Yorick L. A. Schmerwitz: GMF and freeze-and-release deltaSCF, NEB S-IDPP initial path                    
  Kantharuban Sivalingam : CASSCF convergence/infrastructure, NEVPT2, NEVPT3, NEVPT4(SD), FIC-MRCI and CEPA variants
  Bernardo de Souza      : ESD, SOC TD-DFT                               
  Georgi L. Stoychev     : AutoAux, RI-MP2 NMR, DLPNO-MP2 response, X2C  
  Van Anh Tran           : RI-MP2 g-tensors                              
  Willem Van den Heuvel  : Paramagnetic NMR                              
  Zikuan Wang            : NOTCH, Electric field optimization            
  Frank Wennmohs         : Technical directorship and infrastructure     
  Hang Xu                : AUTO-CI-Response properties                   
                                                                         
[FACCTs GmbH]                                                            
  Markus Bursch, Nicolas Foglia, Miquel Garcia-Rates, Ingolf Harden, Hagen Neugebauer, Anastasios Papadopoulos, 
  Christoph Riplinger, Bernardo de Souza, Georgi L. Stoychev                                                    
                                                                 
  APM, various basis sets, CI-OPT, improved COSX, DLPNO-Multilevel,           
  DOCKER, DRACO, updates on ESD, Fragmentator, GOAT, IRC, LR-CPCM, L-BFGS, MBIS, meta-GGA TD-DFT gradient, ML-optimized integration grids, 
  MM, NACMEs, nearIR, NEB, NEB-TS, NL-DFT gradient (VV10), 2- and 3-layer-ONIOM, interface openCOSMO-RS, QMMM,   
  Crystal-QMMM, RESP, rigid body optimization, SF, symmetry and pop. for TD-DFT, various functionals, SOLVATOR                                   
                                                                         
[Other institutions]                                                     
  V. Asgeirsson          : NEB                                           
  Christoph Bannwarth    : sTDA-DFT, sTD-DFT, PBEh-3c, B97-3c, D3        
  Giovanni Bistoni       : ETS/NOCV, ADLD/ADEX, COVALED                  
  Martin Brehm           : Molecular dynamics                            
  Ronald Cardenas        : ETS/NOCV                                      
  Martina Colucci        : COVALED                                       
  Sebastian Ehlert       : rSCAN, r2SCAN, r2SCAN-3c, D4, dhf basis sets  
  Marvin Friede          : D4 for Fr, Ra, Ac-Lr                          
  Lars Goerigk           : TD-DFT with DH, B97 family of functionals     
  Stefan Grimme          : VdW corrections, initial TS optimization, DFT functionals, gCP, sTDA/sTD-DF 
  Waldemar Hujo          : DFT-NL                                        
  H. Jonsson             : NEB                                           
  Holger Kruse           : gCP                                           
  Marcel Mueller         : wB97X-3c, vDZP basis set                      
  Hagen Neugebauer       : wr2SCAN, Native XTB                           
  Gianluca Regni         : ADLD/ADEX                                     
  Tobias Risthaus        : pre 6.0 range-separated hybrid DFT and stability analysis
  Lukas Wittmann         : regularized MP2, r2SCAN double-hybrids, wr2SCAN        
                                                                         
We gratefully acknowledge several colleagues who have allowed us to      
interface, adapt or use parts of their codes:                            
  Ed Valeev, F. Pavosevic, A. Kumar             : LibInt (2-el integral package), F12 methods 
  Garnet Chan, S. Sharma, J. Yang, R. Olivares  : DMRG                   
  Ulf Ekstrom                                   : XCFun DFT Library      
  Mihaly Kallay                                 : mrcc  (arbitrary order and MRCC methods)
  Frank Weinhold                                : gennbo (NPA and NBO analysis)           
  Simon Mueller                                 : openCOSMO-RS                            
  Christopher J. Cramer and Donald G. Truhlar   : smd solvation model                     
  S Lehtola, MJT Oliveira, MAL Marques          : LibXC Library                           
  Liviu Ungur et al                             : ANISO software                          


 Your calculation uses the libint2 library for the computation of 2-el integrals
 For citations please refer to: http://libint.valeyev.net

 Your ORCA version has been built with support for libXC version: 7.0.0
 For citations please refer to: https://libxc.gitlab.io

 This ORCA versions uses:
   CBLAS   interface :  Fast vector & matrix operations
   LAPACKE interface :  Fast linear algebra routines
   SCALAPACK package :  Parallel linear algebra routines
   Shared memory     :  Shared parallel matrices


  ***********************************
  * Starting time: Wed Jul  9 17:34:49 2025
  * Host name:     MacBook-Air-3.local
  * Process ID:    74633
  * Working dir.:  /Users/blenl/Desktop/Folders/Projects/DFT2/ewithdrawing/cyano
  ***********************************

NOTE: MaxCore=16384 MB was set to SCF,MP2,MDCI,CIPSI,MRCI,RASCI and CIS
      => If you want to overwrite this, your respective input block should be placed after the MaxCore statement
Warning: RI is on but no J-basis has been assigned. Assigning Def2/J (nothing to worry about!)
================================================================================

----- Orbital basis set information -----
Your calculation utilizes the basis: def2-TZVP
   F. Weigend and R. Ahlrichs, Phys. Chem. Chem. Phys. 7, 3297 (2005).

----- AuxJ basis set information -----
Your calculation utilizes the auxiliary basis: def2/J
   H-Rn: F. Weigend, Phys. Chem. Chem. Phys. 8, 1057 (2006).
   Fr-Lr: K. Eichkorn, F. Weigend, O. Treutler, R. Ahlrichs; Theor. Chem. Acc. 97, 119 (1997).

================================================================================
                                        WARNINGS
                       Please study these warnings very carefully!
================================================================================


================================================================================
                                       INPUT FILE
================================================================================
NAME = job.inp
|  1> # avogadro generated ORCA file
|  2> # C7H5N | Single Point | revPBE/def2-TZVP
|  3> # 
|  4> ! SP revPBE def2-TZVP 
|  5> 
|  6> %maxcore 16384
|  7> 
|  8> %pal
|  9>    nprocs 1
| 10> end
| 11> %output
| 12>   Print[P_Basis] 2
| 13>   Print[P_MOs] 1
| 14> end
| 15> 
| 16> 
| 17> * xyz 0 1
| 18>    C     -3.760848    2.328721   -0.000052
| 19>    C     -3.760030    0.932465   -0.000070
| 20>    C     -2.548515    0.232400   -0.000094
| 21>    H     -0.403555    2.879954   -0.000091
| 22>    C     -2.553328    3.027116   -0.000061
| 23>    C     -2.544999   -1.201216   -0.000113
| 24>    H     -4.707699    0.397393   -0.000064
| 25>    N     -2.540882   -2.361985   -0.000129
| 26>    C     -1.343488    2.333020   -0.000085
| 27>    H     -2.555194    4.114867   -0.000049
| 28>    H     -4.702538    2.872610   -0.000033
| 29>    C     -1.339451    0.936852   -0.000100
| 30>    H     -0.390000    0.404908   -0.000118
| 31> *
| 32> 
| 33> 
| 34> 
| 35>                          ****END OF INPUT****
================================================================================

                       ****************************
                       * Single Point Calculation *
                       ****************************

---------------------------------
CARTESIAN COORDINATES (ANGSTROEM)
---------------------------------
  C     -3.760848    2.328721   -0.000052
  C     -3.760030    0.932465   -0.000070
  C     -2.548515    0.232400   -0.000094
  H     -0.403555    2.879954   -0.000091
  C     -2.553328    3.027116   -0.000061
  C     -2.544999   -1.201216   -0.000113
  H     -4.707699    0.397393   -0.000064
  N     -2.540882   -2.361985   -0.000129
  C     -1.343488    2.333020   -0.000085
  H     -2.555194    4.114867   -0.000049
  H     -4.702538    2.872610   -0.000033
  C     -1.339451    0.936852   -0.000100
  H     -0.390000    0.404908   -0.000118

----------------------------
CARTESIAN COORDINATES (A.U.)
----------------------------
  NO LB      ZA    FRAG     MASS         X           Y           Z
   0 C     6.0000    0    12.011   -7.106973    4.400645   -0.000098
   1 C     6.0000    0    12.011   -7.105427    1.762103   -0.000132
   2 C     6.0000    0    12.011   -4.815995    0.439172   -0.000178
   3 H     1.0000    0     1.008   -0.762608    5.442324   -0.000172
   4 C     6.0000    0    12.011   -4.825091    5.720420   -0.000115
   5 C     6.0000    0    12.011   -4.809351   -2.269969   -0.000214
   6 H     1.0000    0     1.008   -8.896262    0.750964   -0.000121
   7 N     7.0000    0    14.007   -4.801571   -4.463505   -0.000244
   8 C     6.0000    0    12.011   -2.538824    4.408769   -0.000161
   9 H     1.0000    0     1.008   -4.828617    7.775972   -0.000093
  10 H     1.0000    0     1.008   -8.886509    5.428446   -0.000062
  11 C     6.0000    0    12.011   -2.531196    1.770394   -0.000189
  12 H     1.0000    0     1.008   -0.736993    0.765165   -0.000223

--------------------------------
INTERNAL COORDINATES (ANGSTROEM)
--------------------------------
 C      0   0   0     0.000000000000     0.00000000     0.00000000
 C      1   0   0     1.396256239730     0.00000000     0.00000000
 C      2   1   0     1.399235362627   120.05471952     0.00000000
 H      1   2   3     3.402245451119    99.29061720     0.00000000
 C      1   2   3     1.394940904306   120.01029241     0.00000000
 C      3   2   1     1.433620311684   120.16167254   180.00002244
 H      2   1   3     1.088291587205   119.41633486   179.99992891
 N      6   3   2     1.160776301148   179.93730482   179.97290579
 C      4   1   2     1.087479123883    20.87034846     0.00000000
 H      5   1   2     1.087752600595   119.94557041   179.99987592
 H      1   2   3     1.087471977010   120.04287621   180.00002121
 C      9   4   1     1.396173836533   120.02886306   180.00012072
 H     12   9   4     1.088311362093   119.42604556     0.00000000

---------------------------
INTERNAL COORDINATES (A.U.)
---------------------------
 C      0   0   0     0.000000000000     0.00000000     0.00000000
 C      1   0   0     2.638541905868     0.00000000     0.00000000
 C      2   1   0     2.644171632263   120.05471952     0.00000000
 H      1   2   3     6.429312142994    99.29061720     0.00000000
 C      1   2   3     2.636056282143   120.01029241     0.00000000
 C      3   2   1     2.709149769110   120.16167254   180.00002244
 H      2   1   3     2.056573053668   119.41633486   179.99992891
 N      6   3   2     2.193549311915   179.93730482   179.97290579
 C      4   1   2     2.055037720495    20.87034846     0.00000000
 H      5   1   2     2.055554516585   119.94557041   179.99987592
 H      1   2   3     2.055024214863   120.04287621   180.00002121
 C      9   4   1     2.638386186393   120.02886306   180.00012072
 H     12   9   4     2.056610422791   119.42604556     0.00000000

---------------------
BASIS SET INFORMATION
---------------------
There are 3 groups of distinct atoms

 Group   1 Type C   : 11s6p2d1f contracted to 5s3p2d1f pattern {62111/411/11/1}
 Group   2 Type H   : 5s1p contracted to 3s1p pattern {311/1}
 Group   3 Type N   : 11s6p2d1f contracted to 5s3p2d1f pattern {62111/411/11/1}

Atom   0C    basis set group =>   1
Atom   1C    basis set group =>   1
Atom   2C    basis set group =>   1
Atom   3H    basis set group =>   2
Atom   4C    basis set group =>   1
Atom   5C    basis set group =>   1
Atom   6H    basis set group =>   2
Atom   7N    basis set group =>   3
Atom   8C    basis set group =>   1
Atom   9H    basis set group =>   2
Atom  10H    basis set group =>   2
Atom  11C    basis set group =>   1
Atom  12H    basis set group =>   2

-------------------------
BASIS SET IN INPUT FORMAT
-------------------------

 # Basis set for element : H 
 NewGTO H 
 S 3 
   1      34.0613410000      0.0254393072
   2       5.1235746000      0.1900859489
   3       1.1646626000      0.8524411301
 S 1 
   1       0.3272304100      1.0000000000
 S 1 
   1       0.1030724100      1.0000000000
 P 1 
   1       0.8000000000      1.0000000000
  end;

 # Basis set for element : C 
 NewGTO C 
 S 6 
   1   13575.3496820000      0.0006064549
   2    2035.2333680000      0.0046979088
   3     463.2256235900      0.0243324776
   4     131.2001959800      0.0973999683
   5      42.8530158910      0.3019558425
   6      15.5841857660      0.6623360915
 S 2 
   1       6.2067138508      0.6559530854
   2       2.5764896527      0.3758563329
 S 1 
   1       0.5769633942      1.0000000000
 S 1 
   1       0.2297283136      1.0000000000
 S 1 
   1       0.0951644400      1.0000000000
 P 4 
   1      34.6972322440      0.0113272200
   2       7.9582622826      0.0761696592
   3       2.3780826883      0.3019225220
   4       0.8143320818      0.7278502735
 P 1 
   1       0.2888754725      1.0000000000
 P 1 
   1       0.1005682367      1.0000000000
 D 1 
   1       1.0970000000      1.0000000000
 D 1 
   1       0.3180000000      1.0000000000
 F 1 
   1       0.7610000000      1.0000000000
  end;

 # Basis set for element : N 
 NewGTO N 
 S 6 
   1   19730.8006470000      0.0005862639
   2    2957.8958745000      0.0045428821
   3     673.2213359500      0.0235584136
   4     190.6824949400      0.0947091933
   5      62.2954418980      0.2971978492
   6      22.6541611820      0.6691624689
 S 2 
   1       8.9791477428      0.6459668363
   2       3.6863002370      0.3870057440
 S 1 
   1       0.8466007680      1.0000000000
 S 1 
   1       0.3364713377      1.0000000000
 S 1 
   1       0.1364765367      1.0000000000
 P 4 
   1      49.2003805100      0.0114488252
   2      11.3467905370      0.0784223379
   3       3.4273972411      0.3081809474
   4       1.1785525134      0.7202719637
 P 1 
   1       0.4164220497      1.0000000000
 P 1 
   1       0.1426082601      1.0000000000
 D 1 
   1       1.6540000000      1.0000000000
 D 1 
   1       0.4690000000      1.0000000000
 F 1 
   1       1.0930000000      1.0000000000
  end;

---------------------------------
AUXILIARY/J BASIS SET INFORMATION
---------------------------------
There are 3 groups of distinct atoms

 Group   1 Type C   : 12s5p4d2f1g contracted to 6s4p3d1f1g pattern {711111/2111/211/2/1}
 Group   2 Type H   : 5s2p1d contracted to 3s1p1d pattern {311/2/1}
 Group   3 Type N   : 12s5p4d2f1g contracted to 6s4p3d1f1g pattern {711111/2111/211/2/1}

Atom   0C    basis set group =>   1
Atom   1C    basis set group =>   1
Atom   2C    basis set group =>   1
Atom   3H    basis set group =>   2
Atom   4C    basis set group =>   1
Atom   5C    basis set group =>   1
Atom   6H    basis set group =>   2
Atom   7N    basis set group =>   3
Atom   8C    basis set group =>   1
Atom   9H    basis set group =>   2
Atom  10H    basis set group =>   2
Atom  11C    basis set group =>   1
Atom  12H    basis set group =>   2

-------------------------------------
AUXILIARY/J BASIS SET IN INPUT FORMAT
-------------------------------------

 # Auxiliary/J basis set for element : H 
 NewAuxJGTO H 
 S 3 
   1      15.6752927000      0.1007184237
   2       3.6063578000      0.3404257499
   3       1.2080016000      0.6491996172
 S 1 
   1       0.4726794000      1.0000000000
 S 1 
   1       0.2018100000      1.0000000000
 P 2 
   1       2.0281365000      0.5596620919
   2       0.5358730000      0.5596620919
 D 1 
   1       2.2165124000      1.0000000000
  end;

 # Auxiliary/J basis set for element : C 
 NewAuxJGTO C 
 S 7 
   1    1861.0916331000      0.0134602335
   2     642.9939764000      0.0299160374
   3     235.1105725000      0.1008649584
   4      90.7028894000      0.2370970548
   5      36.7794552000      0.3924037254
   6      15.6046273000      0.3195862154
   7       6.8907294000      0.0530104441
 S 1 
   1       3.1478850000     -1.0000000000
 S 1 
   1       1.4777287000      1.0000000000
 S 1 
   1       0.7076466000      1.0000000000
 S 1 
   1       0.3430122000      1.0000000000
 S 1 
   1       0.1669453000      1.0000000000
 P 2 
   1      13.5472892000     -0.6769313712
   2       5.4669419000     -0.3779500978
 P 1 
   1       2.1751721000      1.0000000000
 P 1 
   1       0.8582194000      1.0000000000
 P 1 
   1       0.3376720000      1.0000000000
 D 2 
   1       5.9287253000     -0.3533329857
   2       1.9809209000     -0.7456525731
 D 1 
   1       0.8055417000     -1.0000000000
 D 1 
   1       0.3531244000     -1.0000000000
 F 2 
   1       1.6755626000      0.6311076882
   2       0.5997536000      0.4968166032
 G 1 
   1       1.0024600000     -1.0000000000
  end;

 # Auxiliary/J basis set for element : N 
 NewAuxJGTO N 
 S 7 
   1    2542.9401785000      0.0128431329
   2    1029.5472946000      0.0206655120
   3     424.9053546000      0.0652200677
   4     178.4573708000      0.1617388940
   5      76.1362742000      0.3094256941
   6      32.9338653000      0.3918849307
   7      14.4155436000      0.1822470660
 S 1 
   1       6.3718891000     -1.0000000000
 S 1 
   1       2.8381742000      1.0000000000
 S 1 
   1       1.2711793000      1.0000000000
 S 1 
   1       0.5712407000      1.0000000000
 S 1 
   1       0.2569887000      1.0000000000
 P 2 
   1      17.8975990000     -1.0974070137
   2       6.5346319000      0.1380055963
 P 1 
   1       2.3523645000      1.0000000000
 P 1 
   1       0.8397377000      1.0000000000
 P 1 
   1       0.2989335000      1.0000000000
 D 2 
   1       7.6909870000      0.1770780943
   2       2.3044972000      0.8918319220
 D 1 
   1       0.8403987000      1.0000000000
 D 1 
   1       0.3303797000      1.0000000000
 F 2 
   1       2.3331076000      0.6223178877
   2       0.8446137000      0.5036714203
 G 1 
   1       1.4037700000     -1.0000000000
  end;

------------------------------------------------------------------------------
                             ORCA STARTUP CALCULATIONS
                           -- RI-GTO INTEGRALS CHOSEN --
------------------------------------------------------------------------------
------------------------------------------------------------------------------
                   ___                                                        
                  /   \      - P O W E R E D   B Y -                         
                 /     \                                                     
                 |  |  |   _    _      __       _____    __    __             
                 |  |  |  | |  | |    /  \     |  _  \  |  |  /  |          
                  \  \/   | |  | |   /    \    | | | |  |  | /  /          
                 / \  \   | |__| |  /  /\  \   | |_| |  |  |/  /          
                |  |  |   |  __  | /  /__\  \  |    /   |      \           
                |  |  |   | |  | | |   __   |  |    \   |  |\   \          
                \     /   | |  | | |  |  |  |  | |\  \  |  | \   \       
                 \___/    |_|  |_| |__|  |__|  |_| \__\ |__|  \__/        
                                                                              
                      - O R C A' S   B I G   F R I E N D -                    
                                      &                                       
                       - I N T E G R A L  F E E D E R -                       
                                                                              
 v1 FN, 2020, v2 2021, v3 2022-2024                                           
------------------------------------------------------------------------------


----------------------
SHARK INTEGRAL PACKAGE
----------------------

Number of atoms                             ...     13
Number of basis functions                   ...    278
Number of shells                            ...    108
Maximum angular momentum                    ...      3
Integral batch strategy                     ... SHARK/LIBINT Hybrid
RI-J (if used) integral strategy            ... SPLIT-RIJ (Revised 2003 algorithm where possible)
Printlevel                                  ...      1
Contraction scheme used                     ... SEGMENTED contraction
Prescreening option                         ... SCHWARTZ
   Thresh                                   ... 1.000e-10
   Tcut                                     ... 1.000e-11
   Tpresel                                  ... 1.000e-11 
Coulomb Range Separation                    ... NOT USED
Exchange Range Separation                   ... NOT USED
Multipole approximations                    ... NOT USED
Finite Nucleus Model                        ... NOT USED
CABS basis                                  ... NOT available
Auxiliary Coulomb fitting basis             ... AVAILABLE
   # of basis functions in Aux-J            ...    447
   # of shells in Aux-J                     ...    145
   Maximum angular momentum in Aux-J        ...      4
Auxiliary J/K fitting basis                 ... NOT available
Auxiliary Correlation fitting basis         ... NOT available
Auxiliary 'external' fitting basis          ... NOT available

Checking pre-screening integrals            ... done (  0.0 sec) Dimension = 108
   => SHARK Basis and OBASIS are compatible. Storing Pre-screening
Shell pair information
Shell pair cut-off parameter TPreSel        ...   1.0e-11
Total number of shell pairs                 ...      5886
Shell pairs after pre-screening             ...      5403
Total number of primitive shell pairs       ...     18336
Primitive shell pairs kept                  ...     12693
          la=0 lb=0:   1340 shell pairs
          la=1 lb=0:   1481 shell pairs
          la=1 lb=1:    421 shell pairs
          la=2 lb=0:    807 shell pairs
          la=2 lb=1:    447 shell pairs
          la=2 lb=2:    131 shell pairs
          la=3 lb=0:    399 shell pairs
          la=3 lb=1:    222 shell pairs
          la=3 lb=2:    122 shell pairs
          la=3 lb=3:     33 shell pairs

Checking whether 4 symmetric matrices of dimension 278 fit in memory
:Max Core in MB      =  16384.00
 MB in use           =      8.83
 MB left             =  16375.17
 MB needed           =      1.18
 Data fit in memory  = YES
Calculating RI/J V-Matrix + Cholesky decomp.... done (  0.0 sec)
Calculating Nuclear repulsion               ... done (  0.0 sec) ENN=    299.345415085754 Eh

Diagonalization of the overlap matrix:
Smallest eigenvalue                        ... 9.151e-06
Time for diagonalization                   ...    0.004 sec
Threshold for overlap eigenvalues          ... 1.000e-07
Number of eigenvalues below threshold      ... 0
Time for construction of square roots      ...    0.001 sec
Total time needed                          ...    0.005 sec

-------------------
DFT GRID GENERATION
-------------------

General Integration Accuracy     IntAcc      ... 4.388
Radial Grid Type                 RadialGrid  ... OptM3 with GC (2021)
Angular Grid (max. ang.)         AngularGrid ... 4 (Lebedev-302)
Angular grid pruning method      GridPruning ... 4 (adaptive)
Weight generation scheme         WeightScheme... mBecke (2022)
Basis function cutoff            BFCut       ... 1.0000e-10
Integration weight cutoff        WCut        ... 1.0000e-14
Partially contracted basis set               ... off
Rotationally invariant grid construction     ... off
Angular grids for H and He will be reduced by one unit

Total number of grid points                  ...    64333
Total number of batches                      ...     1013
Average number of points per batch           ...       63
Average number of grid points per atom       ...     4949
Grids setup in   0.3 sec
Initializing property integral containers    ... done (  0.0 sec)

SHARK setup successfully completed in   0.4 seconds

Maximum memory used throughout the entire STARTUP-calculation: 38.0 MB
-------------------------------------------------------------------------------
                                 ORCA GUESS
                   Start orbitals & Density for SCF / CASSCF
-------------------------------------------------------------------------------

------------
SCF SETTINGS
------------
Hamiltonian:
 Density Functional     Method          .... DFT(GTOs)
 Exchange Functional    Exchange        .... PBE
   PBE kappa parameter   XKappa         ....  1.245000
   PBE mue parameter    XMuePBE         ....  0.219520
 Correlation Functional Correlation     .... PBE
   PBE beta parameter  CBetaPBE         ....  0.066725
 LDA part of GGA corr.  LDAOpt          .... PW91-LDA
 Gradients option       PostSCFGGA      .... off
   NL short-range parameter             ....  3.700000
 RI-approximation to the Coulomb term is turned on
   Number of AuxJ basis functions       .... 447


General Settings:
 Integral files         IntName         .... job
 Hartree-Fock type      HFTyp           .... RHF
 Total Charge           Charge          ....    0
 Multiplicity           Mult            ....    1
 Number of Electrons    NEL             ....   54
 Basis Dimension        Dim             ....  278
 Nuclear Repulsion      ENuc            ....    299.3454150858 Eh

Convergence Acceleration:
 AO-DIIS                CNVDIIS         .... on
   Start iteration      DIISMaxIt       ....    12
   Startup error        DIISStart       ....  0.200000
   # of expansion vecs  DIISMaxEq       ....     5
   Bias factor          DIISBfac        ....   1.050
   Max. coefficient     DIISMaxC        ....  10.000
 MO-DIIS                CNVKDIIS        .... off
 Trust-Rad. Augm. Hess. CNVTRAH         .... auto
   Auto Start mean grad. ratio tolernc. ....  1.125000
   Auto Start start iteration           ....    50
   Auto Start num. interpolation iter.  ....    10
   Max. Number of Micro iterations      ....    24
   Max. Number of Macro iterations      .... Maxiter - #DIIS iter
   Number of Davidson start vectors     ....     2
   Converg. threshold    (grad. norm)   ....   5.000e-05
   Grad. Scal. Fac. for Micro threshold ....   0.100
   Minimum threshold for Micro iter.    ....   1.000e-02
   NR start threshold (gradient norm)   ....   1.000e-04
   Initial trust radius                 ....   0.400
   Minimum AH scaling param. (alpha)    ....   1.000
   Maximum AH scaling param. (alpha)    .... 1000.000
   Quad. conv. algorithm                .... NR
   White noise on init. David. guess    .... on
   Maximum white noise                  ....   0.010
   Pseudo random numbers                .... off
   Inactive MOs                         .... canonical
   Orbital update algorithm             .... Taylor
   Preconditioner                       .... Diag
   Full preconditioner red. dimension   ....   250
 SOSCF                 CNVSOSCF           .... on
   Start iteration     SOSCFMaxIt         ....   150
   Startup grad/error  SOSCFStart         ....  0.003300
   Hessian update      SOSCFHessUp        .... L-BFGS
   Autom. constraints  SOSCFAutoConstrain .... off
 Level Shifting         CNVShift        .... on
   Level shift para.    LevelShift      ....    0.2500
   Turn off err/grad.   ShiftErr        ....    0.0010
 Zerner damping         CNVZerner       .... off
 Static damping         CNVDamp         .... on
   Fraction old density DampFac         ....    0.7000
   Max. Damping (<1)    DampMax         ....    0.9800
   Min. Damping (>=0)   DampMin         ....    0.0000
   Turn off err/grad.   DampErr         ....    0.1000

SCF Procedure:
 Maximum # iterations   MaxIter         ....   125
 SCF integral mode      SCFMode         .... Direct
   Integral package                     .... SHARK and LIBINT hybrid scheme
 Reset frequency        DirectResetFreq ....    20
 Integral Threshold     Thresh          ....  1.000e-10 Eh
 Primitive CutOff       TCut            ....  1.000e-11 Eh

Convergence Tolerance:
 Convergence Check Mode ConvCheckMode   .... Total+1el-Energy
 Convergence forced     ConvForced      .... 0
 Energy Change          TolE            ....  1.000e-06 Eh
 1-El. energy change                    ....  1.000e-03 Eh
 Orbital Gradient       TolG            ....  5.000e-05
 Orbital Rotation angle TolX            ....  5.000e-05
 DIIS Error             TolErr          ....  1.000e-06

------------------------------
INITIAL GUESS: MODEL POTENTIAL
------------------------------
Loading Hartree-Fock densities                     ... done
Calculating cut-offs                               ... done
Initializing the effective Hamiltonian             ... done
Setting up the integral package (SHARK)            ... done
Starting the Coulomb interaction                   ... done (   0.1 sec)
Making the grid                                    ... done (   0.1 sec)
Mapping shells                                     ... done
Starting the XC term evaluation                    ... done (   0.2 sec)
  promolecular density results
     # of electrons  =     53.998891476
     EX              =    -44.031706788
     EC              =     -1.767811570
     EX+EC           =    -45.799518359
Transforming the Hamiltonian                       ... done (   0.0 sec)
Diagonalizing the Hamiltonian                      ... done (   0.0 sec)
Back transforming the eigenvectors                 ... done (   0.0 sec)
Now organizing SCF variables                       ... done
                      ------------------
                      INITIAL GUESS DONE (   0.3 sec)
                      ------------------
             **** ENERGY FILE WAS UPDATED (job.en.tmp) ****
Finished Guess after   0.4 sec
Maximum memory used throughout the entire GUESS-calculation: 23.3 MB

-------------------------------------------------------------------------------------------
                                      ORCA LEAN-SCF
                              memory conserving SCF solver
-------------------------------------------------------------------------------------------

----------------------------------------D-I-I-S--------------------------------------------
Iteration    Energy (Eh)           Delta-E    RMSDP     MaxDP     DIISErr   Damp  Time(sec)
-------------------------------------------------------------------------------------------
               ***  Starting incremental Fock matrix formation  ***
    1    -324.3536413518405652     0.00e+00  2.59e-03  1.20e-01  2.64e-01  0.700   0.8
    2    -324.4382486348473549    -8.46e-02  1.94e-03  9.69e-02  6.97e-02  0.700   0.7
                               ***Turning on AO-DIIS***
    3    -324.4635197038014667    -2.53e-02  6.21e-04  2.26e-02  4.55e-02  0.700   0.7
    4    -324.4817463257213603    -1.82e-02  1.01e-03  4.82e-02  2.75e-02  0.000   0.7
    5    -324.5219346763481099    -4.02e-02  5.05e-04  2.61e-02  8.87e-03  0.000   0.7
                              *** Initializing SOSCF ***
---------------------------------------S-O-S-C-F--------------------------------------
Iteration    Energy (Eh)           Delta-E    RMSDP     MaxDP     MaxGrad    Time(sec)
--------------------------------------------------------------------------------------
    6    -324.5223936048508904    -4.59e-04  1.39e-04  6.38e-03  2.16e-03     0.6
               *** Restarting incremental Fock matrix formation ***
    7    -324.5224158127082319    -2.22e-05  1.14e-04  5.49e-03  4.06e-04     0.7
    8    -324.5224040840165571     1.17e-05  3.86e-05  1.89e-03  1.45e-03     0.6
    9    -324.5224181749492800    -1.41e-05  2.53e-05  8.14e-04  2.51e-04     0.6
   10    -324.5224152152047736     2.96e-06  1.34e-05  3.25e-04  4.14e-04     0.6
   11    -324.5224187959722713    -3.58e-06  1.01e-05  3.54e-04  7.24e-05     0.6
   12    -324.5224185261033654     2.70e-07  5.60e-06  2.21e-04  1.06e-04     0.5
                 **** Energy Check signals convergence ****

               *****************************************************
               *                     SUCCESS                       *
               *           SCF CONVERGED AFTER  12 CYCLES          *
               *****************************************************

             **** ENERGY FILE WAS UPDATED (job.en.tmp) ****

----------------
TOTAL SCF ENERGY
----------------

Total Energy       :       -324.52241891789072 Eh           -8830.70396 eV

Components:
Nuclear Repulsion  :        299.34541508575398 Eh            8145.60286 eV
Electronic Energy  :       -623.86783400364470 Eh          -16976.30682 eV
One Electron Energy:      -1029.16947598268166 Eh          -28005.12519 eV
Two Electron Energy:        405.30164197903696 Eh           11028.81837 eV

Virial components:
Potential Energy   :       -647.73904314735705 Eh          -17625.87545 eV
Kinetic Energy     :        323.21662422946628 Eh            8795.17148 eV
Virial Ratio       :          2.00403999853515

DFT components:
N(Alpha)           :       27.000019269925 electrons
N(Beta)            :       27.000019269925 electrons
N(Total)           :       54.000038539851 electrons
E(X)               :      -44.871380729724 Eh       
E(C)               :       -1.775459765974 Eh       
E(XC)              :      -46.646840495698 Eh       

---------------
SCF CONVERGENCE
---------------

  Last Energy change         ...   -2.6987e-07  Tolerance :   1.0000e-06
  Last MAX-Density change    ...    2.2142e-04  Tolerance :   1.0000e-05
  Last RMS-Density change    ...    5.6019e-06  Tolerance :   1.0000e-06
  Last DIIS Error            ...    2.1613e-03  Tolerance :   1.0000e-06
  Last Orbital Gradient      ...    1.0584e-04  Tolerance :   5.0000e-05
  Last Orbital Rotation      ...    1.6655e-04  Tolerance :   5.0000e-05


----------------
ORBITAL ENERGIES
----------------

  NO   OCC          E(Eh)            E(eV) 
   0   2.0000     -13.992145      -380.7456 
   1   2.0000      -9.951470      -270.7933 
   2   2.0000      -9.930188      -270.2141 
   3   2.0000      -9.928830      -270.1772 
   4   2.0000      -9.928803      -270.1765 
   5   2.0000      -9.924047      -270.0470 
   6   2.0000      -9.923310      -270.0270 
   7   2.0000      -9.923209      -270.0243 
   8   2.0000      -0.831805       -22.6346 
   9   2.0000      -0.806479       -21.9454 
  10   2.0000      -0.719780       -19.5862 
  11   2.0000      -0.704393       -19.1675 
  12   2.0000      -0.596850       -16.2411 
  13   2.0000      -0.574648       -15.6370 
  14   2.0000      -0.516691       -14.0599 
  15   2.0000      -0.457354       -12.4452 
  16   2.0000      -0.435227       -11.8431 
  17   2.0000      -0.414243       -11.2721 
  18   2.0000      -0.399178       -10.8622 
  19   2.0000      -0.371534       -10.1100 
  20   2.0000      -0.341093        -9.2816 
  21   2.0000      -0.333138        -9.0651 
  22   2.0000      -0.317454        -8.6384 
  23   2.0000      -0.310260        -8.4426 
  24   2.0000      -0.298165        -8.1135 
  25   2.0000      -0.255958        -6.9650 
  26   2.0000      -0.248347        -6.7579 
  27   0.0000      -0.087667        -2.3855 
  28   0.0000      -0.066474        -1.8089 
  29   0.0000      -0.006126        -0.1667 
  30   0.0000       0.009426         0.2565 
  31   0.0000       0.027512         0.7487 
  32   0.0000       0.045521         1.2387 
  33   0.0000       0.047024         1.2796 
  34   0.0000       0.071847         1.9551 
  35   0.0000       0.085154         2.3172 
  36   0.0000       0.097199         2.6449 
  37   0.0000       0.098813         2.6888 
*Only the first 10 virtual orbitals were printed.
------------------
MOLECULAR ORBITALS (RHF, ROHF)
------------------
                      0         1         2         3         4         5   
                 -13.99214  -9.95147  -9.93019  -9.92883  -9.92880  -9.92405
                   2.00000   2.00000   2.00000   2.00000   2.00000   2.00000
                  --------  --------  --------  --------  --------  --------
  0C   1s        -0.000000  0.000092  0.000078  0.014855 -0.004144  0.109785
  0C   2s         0.000002  0.000063  0.000084  0.019419 -0.005576  0.142561
  0C   3s        -0.000046 -0.001177  0.001471  0.001363  0.000504  0.009175
  0C   4s         0.000542  0.013388 -0.009691  0.009662  0.001557  0.004924
  0C   5s         0.013561 -0.019189 -0.034629 -0.012609  0.013997 -0.007411
  0C   1pz        0.000000  0.000000 -0.000000 -0.000000 -0.000000 -0.000000
  0C   1px       -0.000010  0.000025  0.000121 -0.000143  0.000198  0.000452
  0C   1py        0.000040  0.000280 -0.000323 -0.000417  0.000061  0.000434
  0C   2pz       -0.000000 -0.000000  0.000000 -0.000000 -0.000000 -0.000000
  0C   2px        0.000196  0.001701 -0.000570  0.006248 -0.001315 -0.006547
  0C   2py       -0.000831 -0.011656  0.008342  0.005973 -0.004089 -0.014561
  0C   3pz       -0.000000  0.000000  0.000000  0.000000 -0.000000  0.000000
  0C   3px        0.003630 -0.006012 -0.010352  0.000116  0.004003 -0.003146
  0C   3py       -0.002868  0.002969  0.008435  0.004161 -0.003062 -0.001070
  0C   1dz2      -0.000001 -0.000150  0.000095  0.000168 -0.000146 -0.000112
  0C   1dxz       0.000000 -0.000000 -0.000000 -0.000000 -0.000000 -0.000000
  0C   1dyz      -0.000000  0.000000 -0.000000 -0.000000  0.000000  0.000000
  0C   1dx2y2    -0.000005 -0.000042  0.000185  0.000383 -0.000120 -0.000264
  0C   1dxy      -0.000002 -0.000052 -0.000201 -0.000003  0.000065 -0.000258
  0C   2dz2      -0.000041 -0.001168  0.001123  0.000010 -0.000295 -0.000036
  0C   2dxz       0.000000 -0.000000  0.000000 -0.000000  0.000000  0.000000
  0C   2dyz       0.000000  0.000000 -0.000000 -0.000000  0.000000  0.000000
  0C   2dx2y2    -0.000245 -0.003449  0.002409  0.004705 -0.002975 -0.006324
  0C   2dxy      -0.000024 -0.001818  0.001398  0.002222  0.001270 -0.005478
  0C   1f0        0.000000  0.000000 -0.000000 -0.000000  0.000000 -0.000000
  0C   1f+1      -0.000027 -0.000032  0.000050 -0.000194  0.000007  0.000778
  0C   1f-1       0.000024  0.000295 -0.000234 -0.000866  0.000289  0.000648
  0C   1f+2      -0.000000  0.000000 -0.000000 -0.000000  0.000000  0.000000
  0C   1f-2       0.000000  0.000000 -0.000000 -0.000000 -0.000000  0.000000
  0C   1f+3       0.000029  0.000125  0.000064  0.000056 -0.000096 -0.000048
  0C   1f-3       0.000028  0.000019  0.000214  0.000866 -0.000387  0.000531
  1C   1s         0.000003 -0.003461  0.000908  0.444177 -0.146373 -0.003648
  1C   2s        -0.000014 -0.004812  0.001080  0.575709 -0.189782 -0.004623
  1C   3s         0.000203  0.003136  0.001826  0.039359 -0.014089 -0.000187
  1C   4s        -0.002044 -0.023235 -0.005597 -0.000871  0.015326 -0.004306
  1C   5s        -0.014621  0.032708  0.043126  0.012678 -0.020985 -0.005502
  1C   1pz       -0.000000  0.000000 -0.000000 -0.000000  0.000000  0.000000
  1C   1px        0.000028  0.000064  0.000352  0.000852 -0.000644 -0.000132
  1C   1py        0.000006  0.000453 -0.000404  0.000367 -0.000064  0.000488
  1C   2pz        0.000000 -0.000000  0.000000 -0.000000 -0.000000 -0.000000
  1C   2px       -0.001376 -0.001608 -0.006374  0.010874  0.010997  0.003763
  1C   2py       -0.000088 -0.009882  0.012790 -0.005356 -0.004027 -0.017434
  1C   3pz        0.000000 -0.000000 -0.000000  0.000000  0.000000  0.000000
  1C   3px       -0.004991  0.010367  0.014630 -0.002313 -0.002157 -0.003213
  1C   3py       -0.004396  0.002840  0.011080  0.003462  0.000298 -0.001446
  1C   1dz2      -0.000004 -0.000200  0.000061 -0.001573  0.000356  0.000186
  1C   1dxz       0.000000 -0.000000  0.000000 -0.000000  0.000000  0.000000
  1C   1dyz      -0.000000  0.000000 -0.000000  0.000000 -0.000000 -0.000000
  1C   1dx2y2    -0.000008  0.000101 -0.000025 -0.000124  0.000014  0.000175
  1C   1dxy       0.000034 -0.000127  0.000048 -0.000399 -0.000068  0.000018
  1C   2dz2       0.000165  0.002483  0.000702 -0.001015 -0.000856  0.000207
  1C   2dxz       0.000000 -0.000000  0.000000 -0.000000 -0.000000 -0.000000
  1C   2dyz      -0.000000 -0.000000 -0.000000  0.000000 -0.000000 -0.000000
  1C   2dx2y2     0.000313  0.003605 -0.002869  0.003561  0.005012  0.005526
  1C   2dxy       0.000329 -0.004345  0.003084 -0.002786 -0.000280 -0.003812
  1C   1f0        0.000000  0.000000 -0.000000 -0.000000  0.000000  0.000000
  1C   1f+1       0.000026 -0.000404  0.000362  0.000196 -0.000428 -0.000046
  1C   1f-1       0.000030  0.000512 -0.000380  0.000223  0.000038  0.000569
  1C   1f+2      -0.000000 -0.000000 -0.000000 -0.000000 -0.000000  0.000000
  1C   1f-2       0.000000  0.000000 -0.000000  0.000000 -0.000000  0.000000
  1C   1f+3      -0.000039  0.000075 -0.000253 -0.000083 -0.000158  0.000054
  1C   1f-3       0.000040  0.000702  0.000344  0.001534 -0.000545 -0.000080
  2C   1s        -0.000030 -0.467962 -0.003023 -0.002282  0.004516  0.000223
  2C   2s         0.000173 -0.606215 -0.003838 -0.002737  0.005414  0.000474
  2C   3s        -0.000417 -0.048200 -0.011672 -0.002799  0.005555 -0.001451
  2C   4s        -0.008600  0.037239  0.100446  0.019964 -0.039604 -0.000935
  2C   5s        -0.005945 -0.048404 -0.088302 -0.022614  0.044947 -0.011188
  2C   1pz        0.000000  0.000000  0.000000  0.000000 -0.000000  0.000000
  2C   1px       -0.000001 -0.000000 -0.000001 -0.000902 -0.000453 -0.000004
  2C   1py        0.000353  0.000474  0.000124  0.000285 -0.000570  0.000364
  2C   2pz        0.000000  0.000000 -0.000001 -0.000000  0.000000 -0.000000
  2C   2px       -0.000018 -0.000042  0.000138  0.023253  0.011636  0.000139
  2C   2py        0.007828  0.001050 -0.041319 -0.010220  0.020298 -0.021376
  2C   3pz        0.000000 -0.000000 -0.000000  0.000000 -0.000000  0.000000
  2C   3px       -0.000036  0.000033  0.000011 -0.008426 -0.004183 -0.000099
  2C   3py        0.016635 -0.014082 -0.004238  0.008823 -0.017447  0.019080
  2C   1dz2       0.000257  0.001693 -0.000389  0.000165 -0.000327  0.000172
  2C   1dxz       0.000000  0.000000  0.000000  0.000000 -0.000000  0.000000
  2C   1dyz      -0.000000 -0.000000  0.000000 -0.000000  0.000000 -0.000000
  2C   1dx2y2     0.000324  0.000298 -0.000767 -0.000034  0.000066  0.000043
  2C   1dxy       0.000002  0.000004 -0.000005  0.000027  0.000015 -0.000001
  2C   2dz2       0.000481 -0.004448 -0.011385 -0.002006  0.003980 -0.000608
  2C   2dxz      -0.000000 -0.000000 -0.000000  0.000000  0.000000  0.000000
  2C   2dyz      -0.000000  0.000000  0.000000 -0.000000 -0.000000  0.000000
  2C   2dx2y2     0.002594 -0.003136 -0.008642 -0.006310  0.012333 -0.009345
  2C   2dxy       0.000001 -0.000056 -0.000014  0.016462  0.008346  0.000011
  2C   1f0       -0.000000 -0.000000  0.000000  0.000000 -0.000000  0.000000
  2C   1f+1       0.000000  0.000001 -0.000001 -0.001282 -0.000644 -0.000003
  2C   1f-1      -0.000226 -0.000114  0.000160  0.000406 -0.000809  0.000440
  2C   1f+2      -0.000000 -0.000000  0.000000 -0.000000 -0.000000  0.000000
  2C   1f-2      -0.000000  0.000000 -0.000000  0.000000 -0.000000  0.000000
  2C   1f+3       0.000001 -0.000004  0.000002  0.000008  0.000009  0.000001
  2C   1f-3       0.000161  0.000498 -0.000542  0.000386 -0.000767 -0.000045
  3H   1s         0.000013  0.000165 -0.000003 -0.000170 -0.000023 -0.000150
  3H   2s         0.000339  0.000741 -0.000234 -0.000776  0.001427 -0.001803
  3H   3s         0.000515 -0.001091 -0.002554 -0.000885 -0.000309  0.000057
  3H   1pz        0.000000 -0.000000  0.000000 -0.000000 -0.000000 -0.000000
  3H   1px       -0.000064 -0.000150 -0.000020  0.000184  0.000104  0.001015
  3H   1py       -0.000039 -0.000303  0.000151 -0.000144 -0.000631 -0.000299
  4C   1s         0.000001  0.000176 -0.000056  0.000103 -0.000205  0.442260
  4C   2s        -0.000006  0.000074 -0.000056  0.000156 -0.000310  0.573454
  4C   3s         0.000006  0.001325 -0.000187  0.000364 -0.000720  0.038388
  4C   4s         0.000589  0.000761 -0.002831 -0.004921  0.009782 -0.002402
  4C   5s        -0.011391  0.017296  0.027811  0.005491 -0.010958  0.021341
  4C   1pz       -0.000000 -0.000000 -0.000000  0.000000  0.000000 -0.000000
  4C   1px        0.000000  0.000000  0.000001 -0.000354 -0.000179 -0.000002
  4C   1py       -0.000018 -0.000204 -0.000004 -0.000081  0.000159 -0.000828
  4C   2pz        0.000000 -0.000000  0.000000 -0.000000 -0.000000 -0.000000
  4C   2px       -0.000003  0.000015 -0.000029  0.009842  0.004996  0.000117
  4C   2py        0.000070 -0.001045  0.000163  0.003224 -0.006360 -0.003915
  4C   3pz        0.000000 -0.000000 -0.000000 -0.000000  0.000000 -0.000000
  4C   3px       -0.000005  0.000010  0.000025  0.001080  0.000541  0.000036
  4C   3py        0.005224 -0.005133 -0.010929 -0.001435  0.002881 -0.002915
  4C   1dz2      -0.000021 -0.000103  0.000019  0.000063 -0.000126 -0.001376
  4C   1dxz      -0.000000 -0.000000  0.000000  0.000000 -0.000000 -0.000000
  4C   1dyz       0.000000  0.000000  0.000000 -0.000000  0.000000  0.000000
  4C   1dx2y2    -0.000009 -0.000031 -0.000104 -0.000030  0.000059  0.000234
  4C   1dxy      -0.000000 -0.000000 -0.000000  0.000008  0.000004 -0.000002
  4C   2dz2       0.000046  0.000344 -0.000017  0.000297 -0.000588 -0.000834
  4C   2dxz      -0.000000 -0.000000  0.000000 -0.000000 -0.000000 -0.000000
  4C   2dyz      -0.000000 -0.000000  0.000000  0.000000  0.000000  0.000000
  4C   2dx2y2     0.000049  0.001810 -0.000578  0.000006  0.000025  0.000441
  4C   2dxy       0.000001  0.000001  0.000010 -0.004005 -0.002027 -0.000055
  4C   1f0       -0.000000  0.000000  0.000000  0.000000  0.000000 -0.000000
  4C   1f+1       0.000000 -0.000000  0.000001 -0.000268 -0.000136 -0.000007
  4C   1f-1      -0.000008  0.000045  0.000032 -0.000081  0.000160 -0.000416
  4C   1f+2      -0.000000  0.000000  0.000000 -0.000000  0.000000 -0.000000
  4C   1f-2       0.000000  0.000000 -0.000000  0.000000  0.000000  0.000000
  4C   1f+3      -0.000000  0.000000  0.000000 -0.000016 -0.000008 -0.000006
  4C   1f-3       0.000022  0.000019 -0.000031  0.000033 -0.000066  0.000994
  5C   1s         0.000005 -0.002948  0.467851 -0.000588  0.001107  0.000034
  5C   2s         0.000203 -0.003912  0.605644 -0.000850  0.001607  0.000021
  5C   3s        -0.001687 -0.002162  0.065337  0.003710 -0.007335  0.004146
  5C   4s         0.019536  0.006316 -0.115231 -0.023760  0.047059 -0.030645
  5C   5s         0.001669  0.003507  0.035128  0.015233 -0.030149  0.022422
  5C   1pz       -0.000000 -0.000000  0.000000  0.000000 -0.000000  0.000000
  5C   1px        0.000002  0.000002  0.000001 -0.000131 -0.000064 -0.000001
  5C   1py       -0.000617 -0.000515  0.000501  0.000158 -0.000313  0.000096
  5C   2pz       -0.000000 -0.000000 -0.000001 -0.000000  0.000000 -0.000000
  5C   2px        0.000015  0.000032  0.000120  0.003593  0.001770  0.000023
  5C   2py       -0.003232 -0.011833 -0.044184 -0.006489  0.012853 -0.006541
  5C   3pz        0.000000  0.000000  0.000000  0.000000 -0.000000  0.000000
  5C   3px       -0.000085 -0.000003 -0.000080  0.001303  0.000708 -0.000025
  5C   3py        0.024369  0.000745  0.028197  0.008901 -0.017647  0.013189
  5C   1dz2       0.000433 -0.000137 -0.001820  0.000052 -0.000104  0.000132
  5C   1dxz      -0.000000 -0.000000  0.000000  0.000000 -0.000000  0.000000
  5C   1dyz      -0.000000  0.000000  0.000000 -0.000000  0.000000 -0.000000
  5C   1dx2y2     0.000834 -0.000220 -0.003250  0.000003 -0.000008  0.000127
  5C   1dxy       0.000006 -0.000002 -0.000022  0.000077  0.000040  0.000001
  5C   2dz2      -0.004168 -0.002709  0.014983  0.003456 -0.006836  0.004416
  5C   2dxz       0.000000  0.000000  0.000000  0.000000  0.000000 -0.000000
  5C   2dyz       0.000000  0.000000 -0.000001 -0.000000  0.000000 -0.000000
  5C   2dx2y2    -0.007625 -0.005360  0.025441  0.006347 -0.012605  0.008560
  5C   2dxy      -0.000054 -0.000049  0.000137  0.003349  0.001592  0.000056
  5C   1f0       -0.000000 -0.000000  0.000000  0.000000 -0.000000 -0.000000
  5C   1f+1       0.000003  0.000001 -0.000005 -0.000021 -0.000010 -0.000000
  5C   1f-1      -0.000791 -0.000571  0.001749  0.000026 -0.000048 -0.000052
  5C   1f+2      -0.000000 -0.000000  0.000000  0.000000 -0.000000  0.000000
  5C   1f-2       0.000000  0.000000  0.000000  0.000000  0.000000 -0.000000
  5C   1f+3      -0.000011 -0.000008  0.000017  0.000440  0.000219  0.000003
  5C   1f-3       0.001087  0.001101 -0.001775 -0.000111  0.000227 -0.000256
  6H   1s         0.000038 -0.000034 -0.000242 -0.000662  0.000330 -0.000124
  6H   2s        -0.000940  0.003286  0.001245 -0.000895  0.000625 -0.001550
  6H   3s        -0.001010  0.000166  0.003727 -0.002977  0.002280 -0.001116
  6H   1pz        0.000000 -0.000000  0.000000  0.000000 -0.000000 -0.000000
  6H   1px       -0.000123  0.000723 -0.000015 -0.001679  0.000987 -0.000167
  6H   1py       -0.000076 -0.000344  0.000083 -0.001247  0.000229 -0.000531
  7N   1s         0.449253  0.000015 -0.000209  0.000000 -0.000001 -0.000001
  7N   2s         0.625408 -0.000140 -0.000251 -0.000005  0.000010  0.000004
  7N   3s         0.040669  0.002386  0.002372 -0.000216  0.000429 -0.000575
  7N   4s        -0.046205 -0.014915  0.009013  0.006952 -0.013761  0.010659
  7N   5s         0.037905 -0.002268  0.017013  0.003726 -0.007424  0.005491
  7N   1pz        0.000000  0.000000 -0.000000 -0.000000  0.000000 -0.000000
  7N   1px       -0.000011 -0.000003  0.000003 -0.000118 -0.000061  0.000001
  7N   1py        0.003210  0.000779 -0.000279 -0.000115  0.000226 -0.000221
  7N   2pz       -0.000000 -0.000000 -0.000000  0.000000 -0.000000  0.000000
  7N   2px        0.000034  0.000020 -0.000010  0.000815  0.000442 -0.000019
  7N   2py       -0.009627 -0.007119 -0.000940  0.003069 -0.006077  0.004905
  7N   3pz        0.000000 -0.000000  0.000000  0.000000 -0.000000  0.000000
  7N   3px       -0.000021  0.000005 -0.000017 -0.000249 -0.000113 -0.000008
  7N   3py        0.005947 -0.001378  0.002587  0.000437 -0.000877  0.000627
  7N   1dz2      -0.000384 -0.000055  0.000355 -0.000025  0.000050 -0.000048
  7N   1dxz       0.000000  0.000000  0.000000 -0.000000  0.000000 -0.000000
  7N   1dyz       0.000000  0.000000 -0.000000  0.000000 -0.000000  0.000000
  7N   1dx2y2    -0.000683 -0.000123  0.000570 -0.000006  0.000014 -0.000016
  7N   1dxy      -0.000005 -0.000002  0.000005 -0.000074 -0.000037  0.000000
  7N   2dz2       0.000917  0.000662  0.002183 -0.000077  0.000155 -0.000214
  7N   2dxz      -0.000000 -0.000000  0.000000  0.000000 -0.000000  0.000000
  7N   2dyz      -0.000000 -0.000000 -0.000000  0.000000 -0.000000  0.000000
  7N   2dx2y2     0.001655  0.001163  0.003798 -0.000253  0.000499 -0.000543
  7N   2dxy       0.000011  0.000005  0.000019  0.000288  0.000154 -0.000006
  7N   1f0       -0.000000  0.000000  0.000000  0.000000 -0.000000  0.000000
  7N   1f+1       0.000000  0.000000 -0.000003  0.000010  0.000005  0.000000
  7N   1f-1      -0.000094  0.000011  0.000915  0.000038 -0.000075  0.000004
  7N   1f+2      -0.000000 -0.000000  0.000000  0.000000 -0.000000  0.000000
  7N   1f-2      -0.000000  0.000000  0.000000 -0.000000 -0.000000 -0.000000
  7N   1f+3      -0.000001 -0.000002  0.000012 -0.000064 -0.000033  0.000000
  7N   1f-3       0.000115  0.000047 -0.001088 -0.000044  0.000084 -0.000029
  8C   1s        -0.000000  0.000092  0.000075 -0.005492 -0.014406  0.106018
  8C   2s         0.000002  0.000063  0.000081 -0.007051 -0.018927  0.137679
  8C   3s        -0.000046 -0.001170  0.001471 -0.001216 -0.000793  0.008845
  8C   4s         0.000540  0.013363 -0.009728 -0.006981 -0.006852  0.004940
  8C   5s         0.013585 -0.019173 -0.034621 -0.003708  0.018519 -0.007682
  8C   1pz        0.000000  0.000000 -0.000000  0.000000  0.000000  0.000000
  8C   1px        0.000010 -0.000027 -0.000119  0.000074 -0.000234 -0.000449
  8C   1py        0.000040  0.000280 -0.000324  0.000200  0.000371  0.000438
  8C   2pz       -0.000000 -0.000000  0.000000 -0.000000 -0.000000 -0.000000
  8C   2px       -0.000196 -0.001643  0.000506  0.002652  0.005849  0.006697
  8C   2py       -0.000825 -0.011670  0.008420 -0.000263 -0.007244 -0.014589
  8C   3pz        0.000000 -0.000000 -0.000000 -0.000000 -0.000000 -0.000000
  8C   3px       -0.003612  0.006001  0.010328  0.003270 -0.002279  0.003202
  8C   3py       -0.002893  0.002984  0.008455 -0.000008 -0.005192 -0.001034
  8C   1dz2      -0.000001 -0.000149  0.000095  0.000017 -0.000222 -0.000099
  8C   1dxz       0.000000 -0.000000  0.000000  0.000000 -0.000000  0.000000
  8C   1dyz       0.000000  0.000000 -0.000000  0.000000  0.000000  0.000000
  8C   1dx2y2    -0.000005 -0.000041  0.000184 -0.000132 -0.000380 -0.000265
  8C   1dxy       0.000002  0.000052  0.000202  0.000050 -0.000043  0.000259
  8C   2dz2      -0.000040 -0.001164  0.001125  0.000230 -0.000182 -0.000027
  8C   2dxz       0.000000  0.000000 -0.000000  0.000000  0.000000  0.000000
  8C   2dyz       0.000000  0.000000 -0.000000 -0.000000  0.000000 -0.000000
  8C   2dx2y2    -0.000243 -0.003467  0.002446 -0.000424 -0.005572 -0.006389
  8C   2dxy       0.000020  0.001794 -0.001387  0.002339  0.000997  0.005463
  8C   1f0       -0.000000  0.000000 -0.000000  0.000000  0.000000  0.000000
  8C   1f+1       0.000027  0.000031 -0.000049 -0.000111 -0.000164 -0.000780
  8C   1f-1       0.000024  0.000295 -0.000235  0.000283  0.000868  0.000649
  8C   1f+2       0.000000  0.000000 -0.000000  0.000000  0.000000 -0.000000
  8C   1f-2      -0.000000  0.000000 -0.000000  0.000000  0.000000  0.000000
  8C   1f+3      -0.000029 -0.000125 -0.000067 -0.000042  0.000112  0.000042
  8C   1f-3       0.000028  0.000019  0.000213 -0.000204 -0.000925  0.000543
  9H   1s         0.000027  0.000159 -0.000105 -0.000083  0.000165 -0.000677
  9H   2s        -0.000231  0.001556  0.000384 -0.000629  0.001248 -0.001653
  9H   3s        -0.001277  0.000102  0.001794 -0.000033  0.000057 -0.001805
  9H   1pz        0.000000 -0.000000 -0.000000 -0.000000 -0.000000  0.000000
  9H   1px       -0.000000  0.000001 -0.000001  0.000213  0.000108  0.000002
  9H   1py        0.000034 -0.000257 -0.000070  0.000182 -0.000361  0.002212
 10H   1s         0.000013  0.000165 -0.000002  0.000120  0.000122 -0.000155
 10H   2s         0.000338  0.000739 -0.000232 -0.000681  0.001472 -0.001800
 10H   3s         0.000517 -0.001090 -0.002555  0.000777  0.000529  0.000045
 10H   1pz       -0.000000 -0.000000  0.000000  0.000000 -0.000000  0.000000
 10H   1px        0.000064  0.000151  0.000020  0.000191  0.000086 -0.001026
 10H   1py       -0.000039 -0.000303  0.000150  0.000593 -0.000259 -0.000293
 11C   1s         0.000003 -0.003455  0.000870 -0.146368 -0.444179 -0.003515
 11C   2s        -0.000015 -0.004803  0.001032 -0.189659 -0.575750 -0.004451
 11C   3s         0.000203  0.003133  0.001809 -0.012067 -0.040025 -0.000172
 11C   4s        -0.002027 -0.023141 -0.005578 -0.011810  0.009844 -0.004487
 11C   5s        -0.014632  0.032669  0.043089  0.009275 -0.022761 -0.005230
 11C   1pz        0.000000  0.000000  0.000000 -0.000000 -0.000000  0.000000
 11C   1px       -0.000028 -0.000066 -0.000351 -0.000011  0.001069  0.000129
 11C   1py        0.000006  0.000452 -0.000405 -0.000166 -0.000330  0.000486
 11C   2pz       -0.000000 -0.000000  0.000000 -0.000000  0.000000 -0.000000
 11C   2px        0.001368  0.001577  0.006382  0.015283  0.002163 -0.003597
 11C   2py       -0.000077 -0.009894  0.012890  0.006461  0.001882 -0.017382
 11C   3pz       -0.000000  0.000000  0.000000  0.000000 -0.000000 -0.000000
 11C   3px        0.004994 -0.010366 -0.014670 -0.003070 -0.000541  0.003159
 11C   3py       -0.004406  0.002794  0.011024 -0.002320 -0.002633 -0.001407
 11C   1dz2      -0.000004 -0.000201  0.000062  0.000649  0.001476  0.000185
 11C   1dxz      -0.000000 -0.000000  0.000000  0.000000  0.000000  0.000000
 11C   1dyz       0.000000  0.000000 -0.000000 -0.000000 -0.000000 -0.000000
 11C   1dx2y2    -0.000008  0.000100 -0.000023  0.000065  0.000111  0.000173
 11C   1dxy      -0.000034  0.000129 -0.000050 -0.000291 -0.000280 -0.000018
 11C   2dz2       0.000163  0.002474  0.000694  0.001294  0.000304  0.000216
 11C   2dxz      -0.000000  0.000000  0.000000  0.000000 -0.000000 -0.000000
 11C   2dyz      -0.000000 -0.000000  0.000000  0.000000  0.000000 -0.000000
 11C   2dx2y2     0.000317  0.003597 -0.002888 -0.006132  0.000147  0.005445
 11C   2dxy      -0.000326  0.004377 -0.003114 -0.001922 -0.002061  0.003820
 11C   1f0        0.000000  0.000000  0.000000  0.000000 -0.000000  0.000000
 11C   1f+1      -0.000027  0.000402 -0.000361 -0.000227  0.000413  0.000041
 11C   1f-1       0.000029  0.000513 -0.000381 -0.000164 -0.000155  0.000563
 11C   1f+2      -0.000000  0.000000 -0.000000 -0.000000  0.000000  0.000000
 11C   1f-2       0.000000  0.000000  0.000000 -0.000000 -0.000000  0.000000
 11C   1f+3       0.000038 -0.000081  0.000250 -0.000172  0.000044 -0.000054
 11C   1f-3       0.000041  0.000703  0.000347 -0.000477 -0.001556 -0.000075
 12H   1s         0.000038 -0.000034 -0.000242  0.000128  0.000729 -0.000126
 12H   2s        -0.000942  0.003283  0.001241  0.000029  0.001089 -0.001541
 12H   3s        -0.001005  0.000163  0.003733 -0.000075  0.003742 -0.001119
 12H   1pz       -0.000000  0.000000  0.000000  0.000000  0.000000 -0.000000
 12H   1px        0.000123 -0.000722  0.000017 -0.000206 -0.001941  0.000172
 12H   1py       -0.000076 -0.000348  0.000085  0.000556  0.001132 -0.000525
                      6         7         8         9        10        11   
                  -9.92331  -9.92321  -0.83180  -0.80648  -0.71978  -0.70439
                   2.00000   2.00000   2.00000   2.00000   2.00000   2.00000
                  --------  --------  --------  --------  --------  --------
  0C   1s         0.367063  0.268211 -0.015531  0.038984 -0.036235 -0.053823
  0C   2s         0.475795  0.347636 -0.032378  0.081413 -0.076068 -0.113085
  0C   3s         0.032221  0.024172  0.048633 -0.122999  0.119696  0.176489
  0C   4s        -0.003625 -0.014627  0.046459 -0.124171  0.100827  0.165774
  0C   5s         0.026312  0.033284 -0.005151  0.004260  0.024232  0.012056
  0C   1pz       -0.000000 -0.000000 -0.000000  0.000001 -0.000000 -0.000001
  0C   1px        0.000500  0.000579  0.013597 -0.034881  0.042457 -0.005909
  0C   1py       -0.000502 -0.000247 -0.012063  0.020905  0.038638 -0.044154
  0C   2pz       -0.000000  0.000000 -0.000000  0.000001  0.000000 -0.000000
  0C   2px        0.006831 -0.004211  0.009575 -0.024662  0.026773 -0.011028
  0C   2py        0.001747 -0.002500 -0.009001  0.015608  0.039914 -0.026407
  0C   3pz       -0.000000 -0.000000  0.000000 -0.000000 -0.000000  0.000000
  0C   3px        0.005211  0.005970 -0.003454  0.005466  0.011729 -0.011907
  0C   3py       -0.001913 -0.002158 -0.000063 -0.001527  0.005438 -0.006511
  0C   1dz2      -0.001302 -0.000918 -0.001946  0.004738 -0.003638 -0.005346
  0C   1dxz      -0.000000 -0.000000 -0.000000  0.000000 -0.000000 -0.000000
  0C   1dyz       0.000000  0.000000  0.000000 -0.000000 -0.000000  0.000000
  0C   1dx2y2    -0.000117 -0.000050 -0.000406  0.000370  0.002960 -0.003922
  0C   1dxy       0.000243  0.000230  0.000015 -0.000447  0.003412  0.000781
  0C   2dz2      -0.000699 -0.000017 -0.002329  0.005938 -0.002218 -0.004364
  0C   2dxz      -0.000000  0.000000 -0.000000  0.000000 -0.000000 -0.000000
  0C   2dyz      -0.000000  0.000000  0.000000 -0.000000 -0.000000  0.000000
  0C   2dx2y2     0.001368 -0.001416 -0.000711  0.000826  0.009189 -0.006340
  0C   2dxy       0.001968 -0.000355 -0.001242 -0.000845  0.007202 -0.000332
  0C   1f0       -0.000000 -0.000000  0.000000 -0.000000  0.000000  0.000000
  0C   1f+1       0.000059  0.000114 -0.000408  0.001056 -0.000925  0.000229
  0C   1f-1      -0.000227 -0.000152  0.000428 -0.000638 -0.001080  0.000931
  0C   1f+2       0.000000  0.000000  0.000000 -0.000000 -0.000000  0.000000
  0C   1f-2      -0.000000 -0.000000  0.000000 -0.000000 -0.000000 -0.000000
  0C   1f+3      -0.000024  0.000073  0.000031 -0.000068 -0.000675  0.000390
  0C   1f-3      -0.001159 -0.001232 -0.000752  0.001885 -0.001680 -0.002760
  1C   1s        -0.012584 -0.008329 -0.023054  0.039864  0.020520 -0.056090
  1C   2s        -0.016227 -0.010584 -0.048036  0.083332  0.043161 -0.117879
  1C   3s        -0.001391 -0.001434  0.072067 -0.129200 -0.070726  0.184183
  1C   4s         0.013756  0.004719  0.071278 -0.108439 -0.043724  0.173106
  1C   5s        -0.023265 -0.020721  0.028431 -0.048018 -0.008368  0.063284
  1C   1pz        0.000000  0.000000 -0.000000  0.000000  0.000001  0.000001
  1C   1px       -0.000207 -0.000207  0.024475 -0.036988 -0.037680 -0.004283
  1C   1py        0.000317  0.000172 -0.002366 -0.019795  0.063596  0.040129
  1C   2pz       -0.000000 -0.000000 -0.000000  0.000000  0.000001  0.000001
  1C   2px        0.009233  0.003515  0.017344 -0.021011 -0.020538 -0.014653
  1C   2py       -0.008036 -0.006030 -0.003591 -0.014473  0.055058  0.028847
  1C   3pz        0.000000 -0.000000 -0.000000  0.000000  0.000000 -0.000000
  1C   3px       -0.004806 -0.004033  0.013713 -0.018554 -0.003426  0.010682
  1C   3py       -0.001912 -0.004092  0.004885 -0.008565  0.011416 -0.004610
  1C   1dz2       0.000139  0.000228 -0.002816  0.004801  0.002047 -0.005473
  1C   1dxz      -0.000000  0.000000 -0.000000  0.000000  0.000000 -0.000000
  1C   1dyz      -0.000000 -0.000000  0.000000 -0.000000 -0.000000  0.000000
  1C   1dx2y2     0.000279  0.000257  0.000073  0.000262 -0.003225 -0.003740
  1C   1dxy      -0.000079  0.000050 -0.001168  0.000571  0.004011 -0.000911
  1C   2dz2      -0.000473  0.000119 -0.003422  0.002918 -0.001232 -0.004852
  1C   2dxz      -0.000000 -0.000000 -0.000000  0.000000  0.000000  0.000000
  1C   2dyz      -0.000000 -0.000000  0.000000 -0.000000  0.000000  0.000000
  1C   2dx2y2     0.005567  0.003197 -0.000560 -0.000526 -0.008133 -0.010110
  1C   2dxy      -0.002747 -0.001115 -0.003417 -0.000236  0.008995  0.000025
  1C   1f0        0.000000  0.000000  0.000000 -0.000000 -0.000000 -0.000000
  1C   1f+1      -0.000236 -0.000041 -0.000775  0.000920  0.000586  0.000224
  1C   1f-1       0.000695  0.000525  0.000093  0.000668 -0.001493 -0.000874
  1C   1f+2       0.000000  0.000000 -0.000000  0.000000 -0.000000 -0.000000
  1C   1f-2       0.000000  0.000000  0.000000 -0.000000 -0.000000  0.000000
  1C   1f+3       0.000026  0.000108  0.000342  0.000107  0.000209  0.000554
  1C   1f-3      -0.000655 -0.000627  0.000949 -0.001661 -0.000831  0.002768
  2C   1s         0.000025  0.000206 -0.037846  0.040208  0.063043  0.000017
  2C   2s         0.000037  0.000309 -0.079204  0.083967  0.132455  0.000036
  2C   3s        -0.000099 -0.000848  0.123423 -0.125170 -0.202794 -0.000056
  2C   4s         0.000202  0.001580  0.072998 -0.140773 -0.213571 -0.000044
  2C   5s         0.000532  0.003300  0.035207 -0.035021  0.002457 -0.000116
  2C   1pz        0.000000  0.000000 -0.000000 -0.000001  0.000000  0.000001
  2C   1px       -0.000505  0.000063  0.000058  0.000089 -0.000046 -0.090430
  2C   1py        0.000062  0.000507 -0.007455 -0.044259  0.022110 -0.000117
  2C   2pz       -0.000000 -0.000000  0.000000 -0.000000  0.000000  0.000001
  2C   2px        0.015909 -0.001980 -0.000070  0.000087  0.000001 -0.073381
  2C   2py       -0.002332 -0.019326  0.018475 -0.034017  0.022407 -0.000092
  2C   3pz        0.000000  0.000000 -0.000001  0.000001 -0.000000 -0.000000
  2C   3px       -0.008302  0.001026  0.000095 -0.000192  0.000050  0.026193
  2C   3py        0.001698  0.014241 -0.051028  0.068317 -0.025070  0.000004
  2C   1dz2       0.000010  0.000088 -0.004611  0.004700  0.006317  0.000002
  2C   1dxz      -0.000000  0.000000 -0.000000  0.000000  0.000000 -0.000000
  2C   1dyz       0.000000 -0.000000  0.000000 -0.000000 -0.000000  0.000000
  2C   1dx2y2     0.000010  0.000074 -0.001272 -0.001063 -0.001132  0.000021
  2C   1dxy      -0.000088  0.000011 -0.000007 -0.000004  0.000002 -0.005470
  2C   2dz2      -0.000136 -0.001095 -0.001525  0.008744  0.010665  0.000003
  2C   2dxz       0.000000  0.000000 -0.000000  0.000000  0.000000 -0.000000
  2C   2dyz      -0.000000  0.000000  0.000000 -0.000000 -0.000000  0.000000
  2C   2dx2y2    -0.000772 -0.006203  0.002257 -0.002366  0.002503  0.000065
  2C   2dxy       0.007629 -0.000993 -0.000035  0.000019  0.000072 -0.017656
  2C   1f0        0.000000  0.000000 -0.000000  0.000000 -0.000000 -0.000000
  2C   1f+1      -0.000347  0.000043  0.000001 -0.000002  0.000002  0.002033
  2C   1f-1       0.000046  0.000384 -0.000099  0.001213 -0.000749  0.000002
  2C   1f+2      -0.000000  0.000000  0.000000 -0.000000 -0.000000  0.000000
  2C   1f-2       0.000000  0.000000 -0.000000  0.000000  0.000000 -0.000000
  2C   1f+3       0.000157 -0.000018  0.000012 -0.000013 -0.000025 -0.000936
  2C   1f-3      -0.000045 -0.000362 -0.002099  0.002260  0.004119 -0.000005
  3H   1s         0.000352 -0.000692  0.006438 -0.017884  0.024580 -0.039930
  3H   2s        -0.000382 -0.000935  0.006415 -0.018557  0.026369 -0.041863
  3H   3s         0.000826 -0.002000 -0.000293  0.001038  0.005419 -0.002844
  3H   1pz        0.000000 -0.000000  0.000000 -0.000000  0.000000 -0.000000
  3H   1px       -0.000920  0.001531 -0.001154  0.003306 -0.004627  0.005072
  3H   1py       -0.000669  0.000940 -0.000864  0.001890 -0.000545  0.004488
  4C   1s        -0.021889 -0.151275 -0.013980  0.038759 -0.060624 -0.000018
  4C   2s        -0.028335 -0.195782 -0.029154  0.080962 -0.127262 -0.000037
  4C   3s        -0.002045 -0.014256  0.044077 -0.123978  0.197457  0.000060
  4C   4s         0.002209  0.017037  0.042970 -0.111967  0.187422  0.000035
  4C   5s        -0.005242 -0.039846  0.015176 -0.032305  0.007796  0.000063
  4C   1pz        0.000000  0.000000 -0.000000  0.000000 -0.000000  0.000001
  4C   1px       -0.000699  0.000089  0.000035 -0.000086  0.000101 -0.079086
  4C   1py        0.000051  0.000371 -0.016456  0.040435 -0.027152 -0.000145
  4C   2pz       -0.000000  0.000000 -0.000000  0.000000 -0.000000  0.000001
  4C   2px        0.016229 -0.002083  0.000036 -0.000056  0.000021 -0.059500
  4C   2py       -0.000186 -0.001812 -0.011168  0.025440 -0.010731 -0.000099
  4C   3pz       -0.000000  0.000000 -0.000000  0.000000  0.000000  0.000000
  4C   3px        0.005250 -0.000690  0.000015 -0.000010 -0.000006 -0.018237
  4C   3py        0.001119  0.008467 -0.002770  0.005745  0.005163 -0.000055
  4C   1dz2       0.000115  0.000836 -0.001754  0.004643 -0.006134 -0.000001
  4C   1dxz      -0.000000  0.000000 -0.000000  0.000000 -0.000000  0.000000
  4C   1dyz       0.000000 -0.000000  0.000000 -0.000000  0.000000 -0.000000
  4C   1dx2y2    -0.000043 -0.000344  0.000072 -0.000532  0.002726 -0.000020
  4C   1dxy      -0.000465  0.000059 -0.000001 -0.000000  0.000006  0.005803
  4C   2dz2       0.000006  0.000022 -0.001992  0.004247 -0.006125  0.000001
  4C   2dxz      -0.000000  0.000000 -0.000000  0.000000 -0.000000  0.000000
  4C   2dyz       0.000000  0.000000  0.000000 -0.000000  0.000000 -0.000000
  4C   2dx2y2    -0.000205 -0.001843  0.000704 -0.000546  0.002694 -0.000042
  4C   2dxy      -0.008908  0.001137 -0.000004  0.000001  0.000016  0.011990
  4C   1f0        0.000000 -0.000000  0.000000 -0.000000  0.000000 -0.000000
  4C   1f+1      -0.001227  0.000158 -0.000001  0.000002 -0.000001  0.001718
  4C   1f-1      -0.000031 -0.000248  0.000498 -0.001151  0.000527  0.000003
  4C   1f+2      -0.000000  0.000000  0.000000  0.000000 -0.000000  0.000000
  4C   1f-2       0.000000 -0.000000  0.000000 -0.000000  0.000000 -0.000000
  4C   1f+3      -0.000128  0.000026 -0.000003  0.000009 -0.000016 -0.000729
  4C   1f-3      -0.000226 -0.001716  0.000625 -0.001713  0.003141 -0.000003
  5C   1s        -0.000010 -0.000074 -0.071160 -0.026900  0.012676  0.000006
  5C   2s        -0.000019 -0.000137 -0.148469 -0.056353  0.026552  0.000013
  5C   3s         0.000474  0.003868  0.219595  0.091266 -0.037483 -0.000017
  5C   4s        -0.003227 -0.026547  0.270573  0.066144 -0.052541 -0.000062
  5C   5s         0.001701  0.014424 -0.028875  0.083979 -0.036838 -0.000013
  5C   1pz        0.000000  0.000000 -0.000002 -0.000002 -0.000002  0.000000
  5C   1px       -0.000043  0.000005  0.000437  0.000383  0.000355 -0.012630
  5C   1py        0.000016  0.000125 -0.109968 -0.116576 -0.124597 -0.000136
  5C   2pz       -0.000000 -0.000000 -0.000001 -0.000001 -0.000001  0.000000
  5C   2px        0.001122 -0.000125  0.000207  0.000184  0.000180 -0.014628
  5C   2py       -0.000848 -0.006872 -0.046467 -0.053350 -0.060812 -0.000070
  5C   3pz        0.000000  0.000000 -0.000001  0.000001 -0.000000  0.000000
  5C   3px        0.000865 -0.000132  0.000108 -0.000083  0.000060 -0.004896
  5C   3py        0.001118  0.009395 -0.040332  0.038537 -0.022632 -0.000010
  5C   1dz2       0.000016  0.000135 -0.010227 -0.004265  0.000446  0.000001
  5C   1dxz       0.000000  0.000000 -0.000000  0.000000  0.000000 -0.000000
  5C   1dyz      -0.000000 -0.000000  0.000000  0.000000 -0.000000  0.000000
  5C   1dx2y2     0.000016  0.000136 -0.017218 -0.007755  0.000134  0.000007
  5C   1dxy       0.000032 -0.000004 -0.000115 -0.000059 -0.000010 -0.001635
  5C   2dz2       0.000455  0.003736 -0.020763 -0.001825  0.003511  0.000004
  5C   2dxz       0.000000 -0.000000 -0.000000 -0.000000 -0.000000 -0.000000
  5C   2dyz      -0.000000 -0.000000  0.000001  0.000000 -0.000000  0.000000
  5C   2dx2y2     0.000865  0.007159 -0.035186 -0.001950  0.006355  0.000033
  5C   2dxy       0.000819 -0.000060 -0.000228 -0.000009  0.000050 -0.004931
  5C   1f0        0.000000  0.000000  0.000000  0.000000  0.000000 -0.000000
  5C   1f+1       0.000004 -0.000001 -0.000011 -0.000009 -0.000006  0.000416
  5C   1f-1       0.000007  0.000046  0.002601  0.002613  0.002358  0.000002
  5C   1f+2       0.000000  0.000000  0.000000  0.000000  0.000000 -0.000000
  5C   1f-2      -0.000000 -0.000000 -0.000000  0.000000  0.000000 -0.000000
  5C   1f+3       0.000007  0.000002  0.000043  0.000033  0.000024 -0.001480
  5C   1f-3      -0.000038 -0.000305 -0.003498 -0.003203 -0.002852 -0.000013
  6H   1s         0.000158  0.000020  0.011403 -0.018016 -0.016340  0.042198
  6H   2s        -0.000789 -0.000761  0.013106 -0.020895 -0.019294  0.045280
  6H   3s         0.000524  0.000213  0.004838 -0.005880  0.000693  0.004126
  6H   1pz       -0.000000 -0.000000 -0.000000  0.000000  0.000000 -0.000000
  6H   1px        0.000276  0.000100  0.002471 -0.003703 -0.003931  0.005543
  6H   1py       -0.000539 -0.000321  0.000791 -0.002012  0.000800  0.004683
  7N   1s        -0.000000 -0.000001 -0.070884 -0.044929 -0.022744 -0.000021
  7N   2s         0.000001  0.000008 -0.158277 -0.100382 -0.050947 -0.000048
  7N   3s        -0.000057 -0.000481  0.247449  0.156020  0.079574  0.000073
  7N   4s         0.000998  0.008295  0.200021  0.155800  0.091121  0.000106
  7N   5s         0.000528  0.004385  0.027752  0.047476  0.018225  0.000035
  7N   1pz       -0.000000 -0.000000  0.000002  0.000001  0.000000  0.000000
  7N   1px       -0.000010  0.000002 -0.000459 -0.000289 -0.000139 -0.002399
  7N   1py       -0.000025 -0.000203  0.130915  0.080016  0.034973  0.000023
  7N   2pz        0.000000  0.000000  0.000001  0.000001  0.000000  0.000000
  7N   2px        0.000185 -0.000039 -0.000165 -0.000147 -0.000075 -0.001764
  7N   2py        0.000450  0.003749  0.048662  0.041911  0.019503  0.000024
  7N   3pz       -0.000000  0.000000  0.000000  0.000000  0.000000 -0.000000
  7N   3px       -0.000100  0.000006  0.000009 -0.000027 -0.000006  0.000398
  7N   3py        0.000062  0.000505  0.001793  0.003146  0.002323  0.000005
  7N   1dz2      -0.000004 -0.000031 -0.004238 -0.002673 -0.001175 -0.000001
  7N   1dxz      -0.000000 -0.000000 -0.000000 -0.000000 -0.000000 -0.000000
  7N   1dyz       0.000000  0.000000  0.000000  0.000000  0.000000  0.000000
  7N   1dx2y2    -0.000000 -0.000003 -0.007345 -0.004577 -0.002017 -0.000001
  7N   1dxy      -0.000002  0.000001 -0.000053 -0.000033 -0.000016 -0.000163
  7N   2dz2      -0.000017 -0.000145 -0.001707 -0.001219 -0.000166 -0.000001
  7N   2dxz       0.000000  0.000000 -0.000000  0.000000  0.000000  0.000000
  7N   2dyz       0.000000  0.000000  0.000000  0.000000  0.000000  0.000000
  7N   2dx2y2    -0.000046 -0.000380 -0.002644 -0.002356 -0.000436 -0.000003
  7N   2dxy       0.000087 -0.000016 -0.000014 -0.000018 -0.000003 -0.000017
  7N   1f0        0.000000  0.000000 -0.000000 -0.000000 -0.000000  0.000000
  7N   1f+1      -0.000002  0.000000  0.000004  0.000002  0.000000 -0.000030
[...]
      dxz     :     0.024074
      dyz     :     0.017220
      dx2y2   :     0.031454
      dxy     :     0.036585
      f0      :     0.001726  f :     0.008749
      f+1     :     0.000550
      f-1     :     0.000712
      f+2     :     0.000399
      f-2     :     0.001142
      f+3     :     0.002950
      f-3     :     0.001270

  3 H s       :     0.878119  s :     0.878119
      pz      :     0.004927  p :     0.021910
      px      :     0.010742
      py      :     0.006241

  4 C s       :     3.172011  s :     3.172011
      pz      :     0.940865  p :     2.816108
      px      :     0.924597
      py      :     0.950646
      dz2     :     0.004542  d :     0.089863
      dxz     :     0.021475
      dyz     :     0.004800
      dx2y2   :     0.039152
      dxy     :     0.019895
      f0      :     0.001482  f :     0.006951
      f+1     :     0.000494
      f-1     :     0.000612
      f+2     :     0.000170
      f-2     :     0.001121
      f+3     :     0.002256
      f-3     :     0.000815

  5 C s       :     3.241733  s :     3.241733
      pz      :     0.937111  p :     2.972614
      px      :     0.954025
      py      :     1.081478
      dz2     :     0.003021  d :     0.082729
      dxz     :     0.000333
      dyz     :     0.037447
      dx2y2   :     0.011790
      dxy     :     0.030138
      f0      :     0.002394  f :     0.015510
      f+1     :     0.000416
      f-1     :     0.001123
      f+2     :     0.003775
      f-2     :     0.000030
      f+3     :     0.005789
      f-3     :     0.001984

  6 H s       :     0.869782  s :     0.869782
      pz      :     0.004831  p :     0.021974
      px      :     0.010989
      py      :     0.006153

  7 N s       :     3.541544  s :     3.541544
      pz      :     1.059083  p :     3.341128
      px      :     1.041577
      py      :     1.240468
      dz2     :     0.001699  d :     0.038383
      dxz     :     0.000002
      dyz     :     0.015676
      dx2y2   :     0.005097
      dxy     :     0.015910
      f0      :     0.000348  f :     0.001854
      f+1     :     0.000061
      f-1     :    -0.000006
      f+2     :     0.000569
      f-2     :     0.000000
      f+3     :     0.000880
      f-3     :     0.000001

  8 C s       :     3.144120  s :     3.144120
      pz      :     0.955630  p :     2.816368
      px      :     0.936568
      py      :     0.924170
      dz2     :     0.004591  d :     0.089010
      dxz     :     0.008966
      dyz     :     0.016864
      dx2y2   :     0.024567
      dxy     :     0.034023
      f0      :     0.001509  f :     0.007015
      f+1     :     0.000596
      f-1     :     0.000544
      f+2     :     0.000882
      f-2     :     0.000389
      f+3     :     0.002274
      f-3     :     0.000820

  9 H s       :     0.879633  s :     0.879633
      pz      :     0.004834  p :     0.021803
      px      :     0.003963
      py      :     0.013006

 10 H s       :     0.878093  s :     0.878093
      pz      :     0.004928  p :     0.021911
      px      :     0.010767
      py      :     0.006215

 11 C s       :     3.266277  s :     3.266277
      pz      :     0.951757  p :     2.855923
      px      :     0.955817
      py      :     0.948349
      dz2     :     0.004796  d :     0.091207
      dxz     :     0.009411
      dyz     :     0.018415
      dx2y2   :     0.023880
      dxy     :     0.034705
      f0      :     0.001477  f :     0.007044
      f+1     :     0.000619
      f-1     :     0.000539
      f+2     :     0.000852
      f-2     :     0.000476
      f+3     :     0.002223
      f-3     :     0.000859

 12 H s       :     0.869754  s :     0.869754
      pz      :     0.004831  p :     0.021974
      px      :     0.011016
      py      :     0.006127



                     *******************************
                     * LOEWDIN POPULATION ANALYSIS *
                     *******************************

----------------------
LOEWDIN ATOMIC CHARGES
----------------------
   0 C :   -0.123212
   1 C :   -0.074800
   2 C :   -0.148114
   3 H :    0.146384
   4 C :   -0.121210
   5 C :   -0.156401
   6 H :    0.153944
   7 N :    0.075729
   8 C :   -0.123279
   9 H :    0.145348
  10 H :    0.146368
  11 C :   -0.074730
  12 H :    0.153973

-------------------------------
LOEWDIN REDUCED ORBITAL CHARGES
-------------------------------
  0 C s       :     2.770609  s :     2.770609
      pz      :     0.878134  p :     2.931661
      px      :     1.009433
      py      :     1.044094
      dz2     :     0.025600  d :     0.378627
      dxz     :     0.027167
      dyz     :     0.057602
      dx2y2   :     0.119402
      dxy     :     0.148856
      f0      :     0.003086  f :     0.042315
      f+1     :     0.003504
      f-1     :     0.004113
      f+2     :     0.005790
      f-2     :     0.002768
      f+3     :     0.015357
      f-3     :     0.007696

  1 C s       :     2.764027  s :     2.764027
      pz      :     0.866109  p :     2.892623
      px      :     0.991918
      py      :     1.034597
      dz2     :     0.025890  d :     0.376135
      dxz     :     0.028259
      dyz     :     0.059519
      dx2y2   :     0.116282
      dxy     :     0.146185
      f0      :     0.003110  f :     0.042014
      f+1     :     0.003517
      f-1     :     0.003997
      f+2     :     0.005932
      f-2     :     0.003070
      f+3     :     0.014724
      f-3     :     0.007665

  2 C s       :     2.702924  s :     2.702924
      pz      :     0.869696  p :     2.868715
      px      :     1.041705
      py      :     0.957313
      dz2     :     0.034161  d :     0.519478
      dxz     :     0.079666
      dyz     :     0.059712
      dx2y2   :     0.191559
      dxy     :     0.154379
      f0      :     0.003970  f :     0.056998
      f+1     :     0.004467
      f-1     :     0.004573
      f+2     :     0.004871
      f-2     :     0.007680
      f+3     :     0.021778
      f-3     :     0.009659

  3 H s       :     0.794635  s :     0.794635
      pz      :     0.013246  p :     0.058981
      px      :     0.028799
      py      :     0.016936

  4 C s       :     2.771866  s :     2.771866
      pz      :     0.864540  p :     2.923284
      px      :     1.069550
      py      :     0.989195
      dz2     :     0.025868  d :     0.383498
      dxz     :     0.075047
      dyz     :     0.011892
      dx2y2   :     0.167808
      dxy     :     0.102883
      f0      :     0.003079  f :     0.042561
      f+1     :     0.004377
      f-1     :     0.003203
      f+2     :     0.001271
      f-2     :     0.007473
      f+3     :     0.015490
      f-3     :     0.007669

  5 C s       :     2.817044  s :     2.817044
      pz      :     0.864971  p :     2.860583
      px      :     0.843041
      py      :     1.152570
      dz2     :     0.041057  d :     0.419695
      dxz     :     0.000526
      dyz     :     0.132865
      dx2y2   :     0.118802
      dxy     :     0.126445
      f0      :     0.006311  f :     0.059079
      f+1     :     0.001089
      f-1     :     0.009422
      f+2     :     0.010350
      f-2     :     0.000053
      f+3     :     0.015662
      f-3     :     0.016191

  6 H s       :     0.786599  s :     0.786599
      pz      :     0.013216  p :     0.059458
      px      :     0.029496
      py      :     0.016746

  7 N s       :     3.307922  s :     3.307922
      pz      :     1.014669  p :     3.494463
      px      :     1.004267
      py      :     1.475528
      dz2     :     0.011604  d :     0.106246
      dxz     :     0.000003
      dyz     :     0.030035
      dx2y2   :     0.034859
      dxy     :     0.029745
      f0      :     0.001646  f :     0.015641
      f+1     :     0.000281
      f-1     :     0.002557
      f+2     :     0.002732
      f-2     :     0.000000
      f+3     :     0.004175
      f-3     :     0.004250

  8 C s       :     2.770563  s :     2.770563
      pz      :     0.878106  p :     2.931678
      px      :     1.009684
      py      :     1.043888
      dz2     :     0.025605  d :     0.378708
      dxz     :     0.027363
      dyz     :     0.057424
      dx2y2   :     0.119056
      dxy     :     0.149260
      f0      :     0.003087  f :     0.042330
      f+1     :     0.003509
      f-1     :     0.004110
      f+2     :     0.005828
      f-2     :     0.002733
      f+3     :     0.015364
      f-3     :     0.007699

  9 H s       :     0.795821  s :     0.795821
      pz      :     0.012988  p :     0.058831
      px      :     0.011074
      py      :     0.034769

 10 H s       :     0.794646  s :     0.794646
      pz      :     0.013248  p :     0.058986
      px      :     0.028867
      py      :     0.016871

 11 C s       :     2.764012  s :     2.764012
      pz      :     0.866055  p :     2.892518
      px      :     0.991760
      py      :     1.034703
      dz2     :     0.025901  d :     0.376182
      dxz     :     0.028056
      dyz     :     0.059724
      dx2y2   :     0.116624
      dxy     :     0.145878
      f0      :     0.003110  f :     0.042018
      f+1     :     0.003512
      f-1     :     0.004001
      f+2     :     0.005892
      f-2     :     0.003109
      f+3     :     0.014722
      f-3     :     0.007670

 12 H s       :     0.786573  s :     0.786573
      pz      :     0.013214  p :     0.059454
      px      :     0.029566
      py      :     0.016674



                      *****************************
                      * MAYER POPULATION ANALYSIS *
                      *****************************

  NA   - Mulliken gross atomic population
  ZA   - Total nuclear charge
  QA   - Mulliken gross atomic charge
  VA   - Mayer's total valence
  BVA  - Mayer's bonded valence
  FA   - Mayer's free valence

  ATOM       NA         ZA         QA         VA         BVA        FA
  0 C      6.0564     6.0000    -0.0564     3.9267     3.9267     0.0000
  1 C      6.2208     6.0000    -0.2208     4.0234     4.0234     0.0000
  2 C      5.6405     6.0000     0.3595     3.6151     3.6151     0.0000
  3 H      0.9000     1.0000     0.1000     0.9661     0.9661     0.0000
  4 C      6.0849     6.0000    -0.0849     3.9797     3.9797    -0.0000
  5 C      6.3126     6.0000    -0.3126     4.0843     4.0843     0.0000
  6 H      0.8918     1.0000     0.1082     0.9753     0.9753     0.0000
  7 N      6.9229     7.0000     0.0771     3.2639     3.2639     0.0000
  8 C      6.0565     6.0000    -0.0565     3.9268     3.9268     0.0000
  9 H      0.9014     1.0000     0.0986     0.9655     0.9655    -0.0000
 10 H      0.9000     1.0000     0.1000     0.9661     0.9661     0.0000
 11 C      6.2205     6.0000    -0.2205     4.0234     4.0234     0.0000
 12 H      0.8917     1.0000     0.1083     0.9753     0.9753     0.0000

  Mayer bond orders larger than 0.100000
B(  0-C ,  1-C ) :   1.4305 B(  0-C ,  4-C ) :   1.4021 B(  0-C , 10-H ) :   0.9644 
B(  1-C ,  2-C ) :   1.3345 B(  1-C ,  6-H ) :   0.9771 B(  2-C ,  5-C ) :   0.9100 
B(  2-C , 11-C ) :   1.3347 B(  3-H ,  8-C ) :   0.9644 B(  4-C ,  8-C ) :   1.4022 
B(  4-C ,  9-H ) :   0.9622 B(  5-C ,  7-N ) :   3.1281 B(  8-C , 11-C ) :   1.4305 
B( 11-C , 12-H ) :   0.9770 

-------
TIMINGS
-------

Total SCF time: 0 days 0 hours 0 min 8 sec 

Total time                  ....       8.182 sec
Sum of individual times     ....       7.647 sec  ( 93.5%)

SCF preparation             ....       0.023 sec  (  0.3%)
Fock matrix formation       ....       7.523 sec  ( 91.9%)
  Startup                   ....       0.002 sec  (  0.0% of F)
  Split-RI-J                ....       2.319 sec  ( 30.8% of F)
  XC integration            ....       5.703 sec  ( 75.8% of F)
    Basis function eval.    ....       1.784 sec  ( 31.3% of XC)
    Density eval.           ....       0.959 sec  ( 16.8% of XC)
    XC-Functional eval.     ....       0.132 sec  (  2.3% of XC)
    XC-Potential eval.      ....       2.717 sec  ( 47.6% of XC)
Diagonalization             ....       0.000 sec  (  0.0%)
Density matrix formation    ....       0.013 sec  (  0.2%)
Total Energy calculation    ....       0.005 sec  (  0.1%)
Population analysis         ....       0.005 sec  (  0.1%)
Orbital Transformation      ....       0.010 sec  (  0.1%)
Orbital Orthonormalization  ....       0.000 sec  (  0.0%)
DIIS solution               ....       0.048 sec  (  0.6%)
SOSCF solution              ....       0.021 sec  (  0.3%)
Finished LeanSCF after   8.2 sec

Maximum memory used throughout the entire LEANSCF-calculation: 28.5 MB

-------------------------   --------------------
FINAL SINGLE POINT ENERGY      -324.522418917891
-------------------------   --------------------


------------------------------------------------------------------------------
                              ORCA PROPERTY CALCULATIONS
------------------------------------------------------------------------------

GBWName                                 ... job.gbw
Number of atoms                         ...     13
Number of basis functions               ...    278
Max core memory                         ...  16384 MB

Electric properties:
Dipole moment                           ... YES
Quadrupole moment                       ...  NO
Static polarizability (Dipole/Dipole)   ...  NO
Static polarizability (Dipole/Quad.)    ...  NO
Static polarizability (Quad./Quad.)     ...  NO
Static polarizability (Velocity)        ...  NO
Static hyperpolarizability              ...  NO

Atomic electric properties:
Dipole moment                           ...  NO
Quadrupole moment                       ...  NO
Static polarizability                   ...  NO

Choice of electric origin               ... Center of mass
Position of electric origin             ...    -4.816772     1.481331    -0.000166

General magnetic properties:
Magnetizability                         ...  NO

EPR properties:
g-Tensor (aka g-matrix)                 ...  NO
Zero-Field splitting spin-orbit         ...  NO
Zero-field splitting spin-spin          ...  NO
Hyperfine couplings                     ...  NO (   0 nuclei)
Quadrupole couplings                    ...  NO (   0 nuclei)
Contact density                         ...  NO (   0 nuclei)

NMR properties:
Chemical shifts                         ...  NO (   0 nuclei)
Spin-rotation constants                 ...  NO (   0 nuclei)
Spin-spin couplings                     ...  NO (   0 nuclei,    0 pairs)

Choice of magnetic origin               ... GIAO
Position of magnetic origin             ...     0.000000     0.000000     0.000000

Properties with geometric perturbations:
SCF Hessian                             ...  NO
IR spectrum                             ...  NO
VCD spectrum                            ...  NO
X-ray spectroscopy properties:
SCF XES/XAS/RIXS spectra                ...  NO

SCF SOC stabilization energy            ...  NO
Diagonal Born-Oppenheimer correction    ...  NO

-------------
DIPOLE MOMENT
-------------

Method             : SCF
Type of density    : Electron Density
Multiplicity       :   1
Irrep              :   0
Energy             :  -324.5224189178907181 Eh
Basis              : AO
                                X                 Y                 Z
Electronic contribution:      0.008709005      -4.510876033      -0.000055792
Nuclear contribution   :     -0.013423596       6.315647046       0.000079344
                        -----------------------------------------
Total Dipole Moment    :     -0.004714592       1.804771012       0.000023552
                        -----------------------------------------
Magnitude (a.u.)       :      1.804777170
Magnitude (Debye)      :      4.587379002



--------------------
Rotational spectrum 
--------------------
 
Rotational constants in cm-1:             0.189429             0.051335             0.040389 
Rotational constants in MHz :          5678.924059          1538.975812          1210.840677 

Dipole components along the rotational axes: 
x,y,z [a.u.] :     1.804777    -0.000396     0.000001 
x,y,z [Debye]:     4.587379    -0.001006     0.000002 

 

Dipole moment calculation done in   0.0 sec 

Maximum memory used throughout the entire PROP-calculation: 21.2 MB

--------------------------------
SUGGESTED CITATIONS FOR THIS RUN
--------------------------------

Below you find a list of papers that are relevant to this ORCA run
We neither can nor want to force you to cite these papers, but we appreciate if you do
You receive ORCA, which is the product of decades of hard work by many enthusiastic individuals, for free
The only thing we kindly ask in return is that you cite our papers,
We deeply appreciate it, if you show your appreciation for ORCA by not just citing the generic ORCA reference.

Please note that relegating all ORCA citations to the supporting information does *not* help us.
SI sections are not indexed - citations you put there will not count into any citation statistics
But we need these citations in order to attract the funding resources that allow us to do what we are doing

Therefore, if you are a happy ORCA user, please consider citing a few of the papers listed below in the main body of your paper

In addition to the list printed below, the program has created the file job.bibtex that contains the list in bibtex format
You can import this file easily into all common literature databanks and citation aid programs


List of essential papers. We consider these as the minimum necessary citations

  1. Neese, F.
     Software update: the ORCA program system, version 6.0
     WIRES Comput. Molec. Sci. 2025 15(1), e70019
     doi.org/10.1002/wcms.7019

List of papers to cite with high priority. The work reported in these papers was absolutely
necessary for this run to complete.
Our perspective: the developers of density functionals and basis sets usually get cited in chemistry papers
Good! But without the algorithms to do something with them, the functionals or basis sets would not do anything.
Hence, in our opinion, the algorithm design and method developments papers are equally worthy of getting cited

  1. Neese, F.
     An improvement of the resolution of the identity approximation for the formation of the Coulomb matrix
     J. Comp. Chem. 2003 24(14), 1740-1747
     doi.org/10.1002/jcc.10318
  2. Neese, F.
     The SHARK Integral Generation and Digestion System
     J. Comp. Chem. 2022 44(3), 381
     doi.org/10.1002/jcc.26942

List of suggested additional citations. These are papers that are important in the 'surrounding' of 
of this run, or papers that preceded the highly important papers. If you like your results we are grateful for a citation.

  1. Neese, F.
     The ORCA program system
     WIRES Comput. Molec. Sci. 2012 2(1), 73-78
     doi.org/10.1002/wcms.81
  2. Neese, F.
     Software update: the ORCA program system, version 4.0
     WIRES Comput. Molec. Sci. 2018 8(1), 1-6
     doi.org/10.1002/wcms.1327
  3. Neese, F.; Wennmohs, F.; Becker, U.; Riplinger, C.
     The ORCA quantum chemistry program package
     J. Chem. Phys. 2020 152(22), 224108
     doi.org/10.1063/5.0004608
  4. Neese, F.
     Software update: The ORCA program system—Version 5.0
     WIRES Comput. Molec. Sci. 2022 12(1), e1606
     doi.org/10.1002/wcms.1606

List of optional additional citations

  1. Neese, F.
     Approximate second-order SCF convergence for spin unrestricted wavefunctions
     Chem. Phys. Lett. 2000 325(1-3), 93-98
     doi.org/10.1016/s0009-2614(00)00662-x

Timings for individual modules:

Sum of individual times          ...        9.073 sec (=   0.151 min)
Startup calculation              ...        0.393 sec (=   0.007 min)   4.3 %
SCF iterations                   ...        8.623 sec (=   0.144 min)  95.0 %
Property calculations            ...        0.057 sec (=   0.001 min)   0.6 %
                             ****ORCA TERMINATED NORMALLY****
TOTAL RUN TIME: 0 days 0 hours 0 minutes 9 seconds 142 msec
