
                                 *****************
                                 * O   R   C   A *
                                 *****************

                                            #,                                       
                                            ###                                      
                                            ####                                     
                                            #####                                    
                                            ######                                   
                                           ########,                                 
                                     ,,################,,,,,                         
                               ,,#################################,,                 
                          ,,##########################################,,             
                       ,#########################################, ''#####,          
                    ,#############################################,,   '####,        
                  ,##################################################,,,,####,       
                ,###########''''           ''''###############################       
              ,#####''   ,,,,##########,,,,          '''####'''          '####       
            ,##' ,,,,###########################,,,                        '##       
           ' ,,###''''                  '''############,,,                           
         ,,##''                                '''############,,,,        ,,,,,,###''
      ,#''                                            '''#######################'''  
     '                                                          ''''####''''         
             ,#######,   #######,   ,#######,      ##                                
            ,#'     '#,  ##    ##  ,#'     '#,    #''#        ,####,    ,#,          
            ##       ##  ##   ,#'  ##            #'  '#       #'       ,# #          
            ##       ##  #######   ##           ,######,      #####,      #          
            '#,     ,#'  ##    ##  '#,     ,#' ,#      #,     #,   #      #          
             '#######'   ##     ##  '#######'  #'      '#     '####' #    #          



                #########################################################
                #                        -***-                          #
                #          Department of theory and spectroscopy        #
                #                                                       #
                #                      Frank Neese                      #
                #                                                       #
                #     Directorship, Architecture, Infrastructure        #
                #                    SHARK, DRIVERS                     #
                #        Core code/Algorithms in most modules           #
                #                                                       #
                #        Max Planck Institute fuer Kohlenforschung      #
                #                Kaiser Wilhelm Platz 1                 #
                #                 D-45470 Muelheim/Ruhr                 #
                #                      Germany                          #
                #                                                       #
                #                  All rights reserved                  #
                #                        -***-                          #
                #########################################################


                         Program Version 6.1.0  -  RELEASE   -
                                (GIT: $679e74b7b5$)
                          ($2025-06-10 18:02:51 +0200$)


 With contributions from (in alphabetic order):
[Max-Planck-Institut fuer Kohlenforschung]                               
  Daniel Aravena         : Magnetic Suceptibility                        
  Michael Atanasov       : Ab Initio Ligand Field Theory (pilot matlab implementation)
  Alexander A. Auer      : GIAO ZORA, VPT2 properties, NMR spectrum      
  Ute Becker             : All parallelization in ORCA, NUMFREQ, NUMCALC 
  Giovanni Bistoni       : ED, misc. LED, open-shell LED, HFLD           
  Dmytro Bykov           : pre 5.0 version of the SCF Hessian            
  Marcos Casanova-Páez   : Triplet and SCS-CIS(D). UHF-(DLPNO)-IP/EA/STEOM-CCSD. UHF-CVS-IP/STEOM-CCSD   
  Vijay G. Chilkuri      : MRCI spin determinant printing, contributions to CSF-ICE 
  Pauline Colinet        : FMM embedding                                 
  Dipayan Datta          : RHF DLPNO-CCSD density                        
  Achintya Kumar Dutta   : EOM-CC, STEOM-CC                              
  Nicolas Foglia         : Exact transition moments, OPA infrastructure, MCD improvements    
  Dmitry Ganyushin       : Spin-Orbit,Spin-Spin,Magnetic field MRCI      
  Miquel Garcia-Rates    : C-PCM and meta-GGA Hessian, CCSD/C-PCM, Gaussian charge scheme 
  Tiago L. C. Gouveia    : GS-ROHF, GS-ROCIS                             
  Yang Guo               : DLPNO-NEVPT2, F12-NEVPT2, CIM, IAO-localization        
  Andreas Hansen         : Spin unrestricted coupled pair/coupled cluster methods 
  Ingolf Harden          : AUTO-CI MPn and infrastructure                
  Benjamin Helmich-Paris : MC-RPA, TRAH-(SCF,CASSCF), AVAS, COSX integrals, SCF dyn. polar., MC-PDFT, srDFT 
  Lee Huntington         : MR-EOM, pCC                                   
  Robert Izsak           : Overlap fitted RIJCOSX, COSX-SCS-MP3, EOM     
  Riya Kayal             : Wick's Theorem for AUTO-CI, AUTO-CI UHF-CCSDT 
  Emily Kempfer          : AUTO-CI RHF CISDT and CCSDT, approximate NEVPT4
  Christian Kollmar      : KDIIS, OOCD, Brueckner-CCSD(T), CCSD density, CASPT2, CASPT2-K, improved NEVPT2 
  Axel Koslowski         : Symmetry handling                             
  Simone Kossmann        : meta-GGA functionals, TD-DFT gradient, OOMP2, (MP2 Hessian; deprecated post 5.0) 
  Lucas Lang             : DCDCAS, Hyperfine gauge corrections, ICE-SOC+SSC
  Marvin Lechner         : AUTO-CI (C++ implementation), FIC-MRCC        
  Spencer Leger          : CASSCF response                               
  Dagmar Lenk            : GEPOL surface, SMD, ORCA-2-JSON               
  Dimitrios Liakos       : Extrapolation schemes; Compound Job, Property file
  Dimitrios Manganas     : Further ROCIS development; embedding schemes. LFT, Crystal Embedding 
  Dimitrios Pantazis     : SARC Basis sets                               
  Anastasios Papadopoulos: AUTO-CI, single reference methods and gradients 
  Taras Petrenko         : pre 6.0 DFT Hessian and TD-DFT gradient,  ECA, NRVS 
  Petra Pikulova         : Analytic Raman intensities                    
  Peter Pinski           : DLPNO-MP2, DLPNO-MP2 Gradient                 
  Shashank Vittal Rao    : ES-AILFT, MagRelax                            
  Christoph Reimann      : Effective Core Potentials                     
  Marius Retegan         : Local ZFS, SOC                                
  Christoph Riplinger    : Optimizer, TS searches, QM/MM, DLPNO-CCSD(T), (RO)-DLPNO pert. Triples 
  Michael Roemelt        : Original ROCIS implementation, recursive CI coupling coefficients
  Masaaki Saitow         : Open-shell DLPNO-CCSD energy and density      
  Barbara Sandhoefer     : DKH picture change effects                    
  Yorick L. A. Schmerwitz: GMF and freeze-and-release deltaSCF, NEB S-IDPP initial path                    
  Kantharuban Sivalingam : CASSCF convergence/infrastructure, NEVPT2, NEVPT3, NEVPT4(SD), FIC-MRCI and CEPA variants
  Bernardo de Souza      : ESD, SOC TD-DFT                               
  Georgi L. Stoychev     : AutoAux, RI-MP2 NMR, DLPNO-MP2 response, X2C  
  Van Anh Tran           : RI-MP2 g-tensors                              
  Willem Van den Heuvel  : Paramagnetic NMR                              
  Zikuan Wang            : NOTCH, Electric field optimization            
  Frank Wennmohs         : Technical directorship and infrastructure     
  Hang Xu                : AUTO-CI-Response properties                   
                                                                         
[FACCTs GmbH]                                                            
  Markus Bursch, Nicolas Foglia, Miquel Garcia-Rates, Ingolf Harden, Hagen Neugebauer, Anastasios Papadopoulos, 
  Christoph Riplinger, Bernardo de Souza, Georgi L. Stoychev                                                    
                                                                 
  APM, various basis sets, CI-OPT, improved COSX, DLPNO-Multilevel,           
  DOCKER, DRACO, updates on ESD, Fragmentator, GOAT, IRC, LR-CPCM, L-BFGS, MBIS, meta-GGA TD-DFT gradient, ML-optimized integration grids, 
  MM, NACMEs, nearIR, NEB, NEB-TS, NL-DFT gradient (VV10), 2- and 3-layer-ONIOM, interface openCOSMO-RS, QMMM,   
  Crystal-QMMM, RESP, rigid body optimization, SF, symmetry and pop. for TD-DFT, various functionals, SOLVATOR                                   
                                                                         
[Other institutions]                                                     
  V. Asgeirsson          : NEB                                           
  Christoph Bannwarth    : sTDA-DFT, sTD-DFT, PBEh-3c, B97-3c, D3        
  Giovanni Bistoni       : ETS/NOCV, ADLD/ADEX, COVALED                  
  Martin Brehm           : Molecular dynamics                            
  Ronald Cardenas        : ETS/NOCV                                      
  Martina Colucci        : COVALED                                       
  Sebastian Ehlert       : rSCAN, r2SCAN, r2SCAN-3c, D4, dhf basis sets  
  Marvin Friede          : D4 for Fr, Ra, Ac-Lr                          
  Lars Goerigk           : TD-DFT with DH, B97 family of functionals     
  Stefan Grimme          : VdW corrections, initial TS optimization, DFT functionals, gCP, sTDA/sTD-DF 
  Waldemar Hujo          : DFT-NL                                        
  H. Jonsson             : NEB                                           
  Holger Kruse           : gCP                                           
  Marcel Mueller         : wB97X-3c, vDZP basis set                      
  Hagen Neugebauer       : wr2SCAN, Native XTB                           
  Gianluca Regni         : ADLD/ADEX                                     
  Tobias Risthaus        : pre 6.0 range-separated hybrid DFT and stability analysis
  Lukas Wittmann         : regularized MP2, r2SCAN double-hybrids, wr2SCAN        
                                                                         
We gratefully acknowledge several colleagues who have allowed us to      
interface, adapt or use parts of their codes:                            
  Ed Valeev, F. Pavosevic, A. Kumar             : LibInt (2-el integral package), F12 methods 
  Garnet Chan, S. Sharma, J. Yang, R. Olivares  : DMRG                   
  Ulf Ekstrom                                   : XCFun DFT Library      
  Mihaly Kallay                                 : mrcc  (arbitrary order and MRCC methods)
  Frank Weinhold                                : gennbo (NPA and NBO analysis)           
  Simon Mueller                                 : openCOSMO-RS                            
  Christopher J. Cramer and Donald G. Truhlar   : smd solvation model                     
  S Lehtola, MJT Oliveira, MAL Marques          : LibXC Library                           
  Liviu Ungur et al                             : ANISO software                          


 Your calculation uses the libint2 library for the computation of 2-el integrals
 For citations please refer to: http://libint.valeyev.net

 Your ORCA version has been built with support for libXC version: 7.0.0
 For citations please refer to: https://libxc.gitlab.io

 This ORCA versions uses:
   CBLAS   interface :  Fast vector & matrix operations
   LAPACKE interface :  Fast linear algebra routines
   SCALAPACK package :  Parallel linear algebra routines
   Shared memory     :  Shared parallel matrices


  ***********************************
  * Starting time: Wed Jul  9 19:23:45 2025
  * Host name:     MacBook-Air-3.local
  * Process ID:    76208
  * Working dir.:  /Users/blenl/Desktop/Folders/Projects/DFT2/others/bromine/freq
  ***********************************

NOTE: MaxCore=16384 MB was set to SCF,MP2,MDCI,CIPSI,MRCI,RASCI and CIS
      => If you want to overwrite this, your respective input block should be placed after the MaxCore statement
Warning: RI is on but no J-basis has been assigned. Assigning Def2/J (nothing to worry about!)
================================================================================

----- Orbital basis set information -----
Your calculation utilizes the basis: def2-TZVP
   F. Weigend and R. Ahlrichs, Phys. Chem. Chem. Phys. 7, 3297 (2005).

----- AuxJ basis set information -----
Your calculation utilizes the auxiliary basis: def2/J
   H-Rn: F. Weigend, Phys. Chem. Chem. Phys. 8, 1057 (2006).
   Fr-Lr: K. Eichkorn, F. Weigend, O. Treutler, R. Ahlrichs; Theor. Chem. Acc. 97, 119 (1997).

================================================================================
                                        WARNINGS
                       Please study these warnings very carefully!
================================================================================


WARNING: your system is open-shell and RHF/RKS was chosen
  ===> : WILL SWITCH to UHF/UKS


WARNING: Geometry Optimization
  ===> : Switching off AutoStart
         For restart on a previous wavefunction, please use MOREAD

================================================================================
                                       INPUT FILE
================================================================================
NAME = job.inp
|  1> # avogadro generated ORCA file
|  2> # C6H6Br | Frequencies | revPBE/def2-TZVP
|  3> # 
|  4> ! Opt Freq revPBE def2-TZVP 
|  5> 
|  6> %maxcore 16384
|  7> 
|  8> %pal
|  9>    nprocs 1
| 10> end
| 11> 
| 12> * xyz 0 2
| 13>    C     -3.346978    1.955738   -0.074315
| 14>    C     -3.467506    0.571847    0.043749
| 15>    H     -1.994706    3.632295   -0.158427
| 16>    C     -2.314737   -0.227170    0.182727
| 17>    C     -2.084376    2.550031   -0.066971
| 18>    Br    -2.392775   -1.922516   -0.943868
| 19>    H     -0.141353   -0.225272    0.247065
| 20>    H     -2.408643   -0.840405    1.111568
| 21>    C     -0.934757    1.766139    0.044124
| 22>    H      0.046359    2.237256    0.037891
| 23>    H     -4.237647    2.574032   -0.172460
| 24>    C     -1.043915    0.381370    0.162749
| 25>    H     -4.457180    0.114000    0.035153
| 26> *
| 27> 
| 28> 
| 29> 
| 30>                          ****END OF INPUT****
================================================================================

                       *****************************
                       * Geometry Optimization Run *
                       *****************************

Geometry optimization settings:
Update method            Update   .... BFGS
Choice of coordinates    CoordSys .... (2022) Redundant Internals
Initial Hessian          InHess   .... Almloef's Model
Max. no of cycles        MaxIter  .... 50

Convergence Tolerances:
Energy Change            TolE     ....  5.0000e-06 Eh
Max. Gradient            TolMAXG  ....  3.0000e-04 Eh/bohr
RMS Gradient             TolRMSG  ....  1.0000e-04 Eh/bohr
Max. Displacement        TolMAXD  ....  4.0000e-03 bohr
RMS Displacement         TolRMSD  ....  2.0000e-03 bohr
Strict Convergence                .... False

------------------------------------------------------------------------------
                        ORCA OPTIMIZATION COORDINATE SETUP
------------------------------------------------------------------------------

The optimization will be done in redundant internal coordinates (2022)
Making redundant internal coordinates   ...  (2022 redundants) done
Evaluating the initial hessian          ...  (Almloef) done
Evaluating the coordinates              ...  done
Calculating the B-matrix                .... done
Calculating the G-matrix                .... done
The number of degrees of freedom        ....   60

    -----------------------------------------------------------------
                    Redundant Internal Coordinates


    -----------------------------------------------------------------
         Definition                    Initial Value    Approx d2E/dq
    -----------------------------------------------------------------
      1. B(C   1,C   0)                  1.3941         0.615371   
      2. B(C   3,C   1)                  1.4095         0.581658   
      3. B(C   4,C   0)                  1.3955         0.612314   
      4. B(C   4,H   2)                  1.0898         0.360343   
      5. B(Br  5,C   3)                  2.0370         0.194954   
      6. B(H   7,C   3)                  1.1170         0.326133   
      7. B(C   8,C   4)                  1.3959         0.611468   
      8. B(H   9,C   8)                  1.0884         0.362245   
      9. B(H  10,C   0)                  1.0887         0.361858   
     10. B(C  11,C   8)                  1.3941         0.615410   
     11. B(C  11,H   6)                  1.0908         0.359105   
     12. B(C  11,C   3)                  1.4092         0.582349   
     13. B(H  12,C   1)                  1.0905         0.359462   
     14. A(C   1,C   0,H  10)          120.0439         0.352752   
     15. A(C   1,C   0,C   4)          120.0338         0.432510   
     16. A(C   4,C   0,H  10)          119.9223         0.352455   
     17. A(C   0,C   1,H  12)          119.6411         0.352356   
     18. A(C   0,C   1,C   3)          120.0242         0.428540   
     19. A(C   3,C   1,H  12)          120.3332         0.349019   
     20. A(H   7,C   3,C  11)          108.9474         0.343423   
     21. A(C   1,C   3,C  11)          119.4311         0.424327   
     22. A(Br  5,C   3,H   7)           89.9862         0.304479   
     23. A(C   1,C   3,H   7)          108.9333         0.343355   
     24. A(C   1,C   3,Br  5)          112.7019         0.372999   
     25. A(Br  5,C   3,C  11)          112.7132         0.373075   
     26. A(C   0,C   4,C   8)          120.4255         0.432016   
     27. A(C   0,C   4,H   2)          119.7963         0.352205   
     28. A(H   2,C   4,C   8)          119.7755         0.352123   
     29. A(C   4,C   8,H   9)          119.9256         0.352436   
     30. A(H   9,C   8,C  11)          120.0678         0.352820   
     31. A(C   4,C   8,C  11)          120.0065         0.432407   
     32. A(C   3,C  11,H   6)          120.3288         0.349030   
     33. A(H   6,C  11,C   8)          119.6187         0.352301   
     34. A(C   3,C  11,C   8)          120.0510         0.428636   
     35. D(C   3,C   1,C   0,H  10)   -179.4366         0.026180   
     36. D(H  12,C   1,C   0,C   4)   -179.8722         0.026180   
     37. D(C   3,C   1,C   0,C   4)      0.5706         0.026180   
     38. D(H  12,C   1,C   0,H  10)      0.1207         0.026180   
     39. D(Br  5,C   3,C   1,H  12)     42.8797         0.025248   
     40. D(H   7,C   3,C   1,C   0)    124.1992         0.025248   
     41. D(Br  5,C   3,C   1,C   0)   -137.5661         0.025248   
     42. D(C  11,C   3,C   1,C   0)     -1.7925         0.025248   
     43. D(H   7,C   3,C   1,H  12)    -55.3550         0.025248   
     44. D(C   8,C   4,C   0,C   1)      0.6708         0.025906   
     45. D(H   2,C   4,C   0,H  10)      0.0732         0.025906   
     46. D(H   2,C   4,C   0,C   1)   -179.9340         0.025906   
     47. D(C   8,C   4,C   0,H  10)   -179.3220         0.025906   
     48. D(H   9,C   8,C   4,H   2)     -0.0733         0.025830   
     49. D(H   9,C   8,C   4,C   0)    179.3221         0.025830   
     50. D(C  11,C   8,C   4,H   2)    179.9339         0.025830   
     51. D(C  11,C   8,C   4,C   0)     -0.6708         0.025830   
     52. D(H   6,C  11,C   8,H   9)     -0.1208         0.026184   
     53. D(H   6,C  11,C   8,C   4)    179.8721         0.026184   
     54. D(C   3,C  11,C   8,H   9)    179.4363         0.026184   
     55. D(C   3,C  11,C   8,C   4)     -0.5708         0.026184   
     56. D(C   8,C  11,C   3,Br  5)    137.5618         0.025311   
     57. D(C   8,C  11,C   3,C   1)      1.7928         0.025311   
     58. D(H   6,C  11,C   3,H   7)     55.3617         0.025311   
     59. D(H   6,C  11,C   3,Br  5)    -42.8843         0.025311   
     60. D(H   6,C  11,C   3,C   1)   -178.6533         0.025311   
    -----------------------------------------------------------------

Number of atoms                         .... 13
Number of degrees of freedom            .... 60


         *************************************************************
         *                GEOMETRY OPTIMIZATION CYCLE   1            *
         *************************************************************
---------------------------------
CARTESIAN COORDINATES (ANGSTROEM)
---------------------------------
  C     -3.346978    1.955738   -0.074315
  C     -3.467506    0.571847    0.043749
  H     -1.994706    3.632295   -0.158427
  C     -2.314737   -0.227170    0.182727
  C     -2.084376    2.550031   -0.066971
  Br    -2.392775   -1.922516   -0.943868
  H     -0.141353   -0.225272    0.247065
  H     -2.408643   -0.840405    1.111568
  C     -0.934757    1.766139    0.044124
  H      0.046359    2.237256    0.037891
  H     -4.237647    2.574032   -0.172460
  C     -1.043915    0.381370    0.162749
  H     -4.457180    0.114000    0.035153

----------------------------
CARTESIAN COORDINATES (A.U.)
----------------------------
  NO LB      ZA    FRAG     MASS         X           Y           Z
   0 C     6.0000    0    12.011   -6.324872    3.695809   -0.140435
   1 C     6.0000    0    12.011   -6.552637    1.080634    0.082674
   2 H     1.0000    0     1.008   -3.769448    6.864043   -0.299384
   3 C     6.0000    0    12.011   -4.374219   -0.429289    0.345304
   4 C     6.0000    0    12.011   -3.938900    4.818860   -0.126557
   5 Br   35.0000    0    79.900   -4.521689   -3.633029   -1.783652
   6 H     1.0000    0     1.008   -0.267118   -0.425702    0.466885
   7 H     1.0000    0     1.008   -4.551676   -1.588135    2.100559
   8 C     6.0000    0    12.011   -1.766435    3.337519    0.083382
   9 H     1.0000    0     1.008    0.087606    4.227801    0.071604
  10 H     1.0000    0     1.008   -8.007992    4.864216   -0.325902
  11 C     6.0000    0    12.011   -1.972713    0.720685    0.307551
  12 H     1.0000    0     1.008   -8.422850    0.215429    0.066430

--------------------------------
INTERNAL COORDINATES (ANGSTROEM)
--------------------------------
 C      0   0   0     0.000000000000     0.00000000     0.00000000
 C      1   0   0     1.394137872221     0.00000000     0.00000000
 H      1   2   0     2.155587568339   146.05722142     0.00000000
 C      2   1   3     1.409474873183   120.02419882     0.51868069
 C      3   1   2     1.089816624269    34.18027910     0.10235074
 Br     4   2   1     2.037033206206   112.70185048   222.43389212
 H      4   2   1     2.174336908601   145.07834896   357.18891777
 H      4   2   1     1.116969608066   108.93329257   124.19916720
 C      5   3   1     1.395869840583   119.77545065   179.39917168
 H      9   5   3     1.088383518542   119.92562349   359.92673054
 H      1   2   3     1.088674046270   120.04392597   180.04470567
 C      7   4   2     1.090752890376    34.01346217     2.04916709
 H      2   1   3     1.090482642182   119.64107247   180.07594861

---------------------------
INTERNAL COORDINATES (A.U.)
---------------------------
 C      0   0   0     0.000000000000     0.00000000     0.00000000
 C      1   0   0     2.634538771425     0.00000000     0.00000000
 H      1   2   0     4.073470161846   146.05722142     0.00000000
 C      2   1   3     2.663521502959   120.02419882     0.51868069
 C      3   1   2     2.059454956062    34.18027910     0.10235074
 Br     4   2   1     3.849434885432   112.70185048   222.43389212
 H      4   2   1     4.108901280133   145.07834896   357.18891777
 H      4   2   1     2.110766659157   108.93329257   124.19916720
 C      5   3   1     2.637811717303   119.77545065   179.39917168
 H      9   5   3     2.056746778718   119.92562349   359.92673054
 H      1   2   3     2.057295796558   120.04392597   180.04470567
 C      7   4   2     2.061224242594    34.01346217     2.04916709
 H      2   1   3     2.060713547519   119.64107247   180.07594861

---------------------
BASIS SET INFORMATION
---------------------
There are 3 groups of distinct atoms

 Group   1 Type C   : 11s6p2d1f contracted to 5s3p2d1f pattern {62111/411/11/1}
 Group   2 Type H   : 5s1p contracted to 3s1p pattern {311/1}
 Group   3 Type Br  : 17s13p8d1f contracted to 6s5p4d1f pattern {842111/64111/5111/1}

Atom   0C    basis set group =>   1
Atom   1C    basis set group =>   1
Atom   2H    basis set group =>   2
Atom   3C    basis set group =>   1
Atom   4C    basis set group =>   1
Atom   5Br   basis set group =>   3
Atom   6H    basis set group =>   2
Atom   7H    basis set group =>   2
Atom   8C    basis set group =>   1
Atom   9H    basis set group =>   2
Atom  10H    basis set group =>   2
Atom  11C    basis set group =>   1
Atom  12H    basis set group =>   2
---------------------------------
AUXILIARY/J BASIS SET INFORMATION
---------------------------------
There are 3 groups of distinct atoms

 Group   1 Type C   : 12s5p4d2f1g contracted to 6s4p3d1f1g pattern {711111/2111/211/2/1}
 Group   2 Type H   : 5s2p1d contracted to 3s1p1d pattern {311/2/1}
 Group   3 Type Br  : 19s5p5d3f1g contracted to 8s4p3d2f1g pattern {121111111/2111/311/21/1}

Atom   0C    basis set group =>   1
Atom   1C    basis set group =>   1
Atom   2H    basis set group =>   2
Atom   3C    basis set group =>   1
Atom   4C    basis set group =>   1
Atom   5Br   basis set group =>   3
Atom   6H    basis set group =>   2
Atom   7H    basis set group =>   2
Atom   8C    basis set group =>   1
Atom   9H    basis set group =>   2
Atom  10H    basis set group =>   2
Atom  11C    basis set group =>   1
Atom  12H    basis set group =>   2
------------------------------------------------------------------------------
                             ORCA STARTUP CALCULATIONS
                           -- RI-GTO INTEGRALS CHOSEN --
------------------------------------------------------------------------------
------------------------------------------------------------------------------
                   ___                                                        
                  /   \      - P O W E R E D   B Y -                         
                 /     \                                                     
                 |  |  |   _    _      __       _____    __    __             
                 |  |  |  | |  | |    /  \     |  _  \  |  |  /  |          
                  \  \/   | |  | |   /    \    | | | |  |  | /  /          
                 / \  \   | |__| |  /  /\  \   | |_| |  |  |/  /          
                |  |  |   |  __  | /  /__\  \  |    /   |      \           
                |  |  |   | |  | | |   __   |  |    \   |  |\   \          
                \     /   | |  | | |  |  |  |  | |\  \  |  | \   \       
                 \___/    |_|  |_| |__|  |__|  |_| \__\ |__|  \__/        
                                                                              
                      - O R C A' S   B I G   F R I E N D -                    
                                      &                                       
                       - I N T E G R A L  F E E D E R -                       
                                                                              
 v1 FN, 2020, v2 2021, v3 2022-2024                                           
------------------------------------------------------------------------------


----------------------
SHARK INTEGRAL PACKAGE
----------------------

Number of atoms                             ...     13
Number of basis functions                   ...    270
Number of shells                            ...    106
Maximum angular momentum                    ...      3
Integral batch strategy                     ... SHARK/LIBINT Hybrid
RI-J (if used) integral strategy            ... SPLIT-RIJ (Revised 2003 algorithm where possible)
Printlevel                                  ...      1
Contraction scheme used                     ... SEGMENTED contraction
Prescreening option                         ... SCHWARTZ
   Thresh                                   ... 2.500e-11
   Tcut                                     ... 2.500e-12
   Tpresel                                  ... 2.500e-12 
Coulomb Range Separation                    ... NOT USED
Exchange Range Separation                   ... NOT USED
Multipole approximations                    ... NOT USED
Finite Nucleus Model                        ... NOT USED
CABS basis                                  ... NOT available
Auxiliary Coulomb fitting basis             ... AVAILABLE
   # of basis functions in Aux-J            ...    418
   # of shells in Aux-J                     ...    138
   Maximum angular momentum in Aux-J        ...      4
Auxiliary J/K fitting basis                 ... NOT available
Auxiliary Correlation fitting basis         ... NOT available
Auxiliary 'external' fitting basis          ... NOT available

Checking pre-screening integrals            ... done (  0.0 sec) Dimension = 106
   => SHARK Basis and OBASIS are compatible. Storing Pre-screening
Shell pair information
Shell pair cut-off parameter TPreSel        ...   2.5e-12
Total number of shell pairs                 ...      5671
Shell pairs after pre-screening             ...      5265
Total number of primitive shell pairs       ...     19326
Primitive shell pairs kept                  ...     13282
          la=0 lb=0:   1310 shell pairs
          la=1 lb=0:   1458 shell pairs
          la=1 lb=1:    417 shell pairs
          la=2 lb=0:    809 shell pairs
          la=2 lb=1:    445 shell pairs
          la=2 lb=2:    132 shell pairs
          la=3 lb=0:    359 shell pairs
          la=3 lb=1:    198 shell pairs
          la=3 lb=2:    109 shell pairs
          la=3 lb=3:     28 shell pairs

Checking whether 4 symmetric matrices of dimension 270 fit in memory
:Max Core in MB      =  16384.00
 MB in use           =      8.87
 MB left             =  16375.13
 MB needed           =      1.12
 Data fit in memory  = YES
Calculating RI/J V-Matrix + Cholesky decomp.... done (  0.0 sec)
Calculating Nuclear repulsion               ... done (  0.0 sec) ENN=    444.102327091346 Eh

Diagonalization of the overlap matrix:
Smallest eigenvalue                        ... 1.243e-05
Time for diagonalization                   ...    0.004 sec
Threshold for overlap eigenvalues          ... 1.000e-07
Number of eigenvalues below threshold      ... 0
Time for construction of square roots      ...    0.001 sec
Total time needed                          ...    0.004 sec

-------------------
DFT GRID GENERATION
-------------------

General Integration Accuracy     IntAcc      ... 4.388
Radial Grid Type                 RadialGrid  ... OptM3 with GC (2021)
Angular Grid (max. ang.)         AngularGrid ... 4 (Lebedev-302)
Angular grid pruning method      GridPruning ... 4 (adaptive)
Weight generation scheme         WeightScheme... mBecke (2022)
Basis function cutoff            BFCut       ... 1.0000e-11
Integration weight cutoff        WCut        ... 1.0000e-14
Partially contracted basis set               ... off
Rotationally invariant grid construction     ... off
Angular grids for H and He will be reduced by one unit
Core-polarized basis detected: some atoms will have their core
                               angular grid increased.

Total number of grid points                  ...    66728
Total number of batches                      ...     1048
Average number of points per batch           ...       63
Average number of grid points per atom       ...     5133
Grids setup in   0.3 sec
Initializing property integral containers    ... done (  0.0 sec)

SHARK setup successfully completed in   0.4 seconds

Maximum memory used throughout the entire STARTUP-calculation: 42.7 MB
-------------------------------------------------------------------------------
                                 ORCA GUESS
                   Start orbitals & Density for SCF / CASSCF
-------------------------------------------------------------------------------

------------
SCF SETTINGS
------------
Hamiltonian:
 Density Functional     Method          .... DFT(GTOs)
 Exchange Functional    Exchange        .... PBE
   PBE kappa parameter   XKappa         ....  1.245000
   PBE mue parameter    XMuePBE         ....  0.219520
 Correlation Functional Correlation     .... PBE
   PBE beta parameter  CBetaPBE         ....  0.066725
 LDA part of GGA corr.  LDAOpt          .... PW91-LDA
 Gradients option       PostSCFGGA      .... off
   NL short-range parameter             ....  3.700000
 RI-approximation to the Coulomb term is turned on
   Number of AuxJ basis functions       .... 418


General Settings:
 Integral files         IntName         .... job
 Hartree-Fock type      HFTyp           .... UHF
 Total Charge           Charge          ....    0
 Multiplicity           Mult            ....    2
 Number of Electrons    NEL             ....   77
 Basis Dimension        Dim             ....  270
 Nuclear Repulsion      ENuc            ....    444.1023270913 Eh

Convergence Acceleration:
 AO-DIIS                CNVDIIS         .... on
   Start iteration      DIISMaxIt       ....    12
   Startup error        DIISStart       ....  0.200000
   # of expansion vecs  DIISMaxEq       ....     5
   Bias factor          DIISBfac        ....   1.050
   Max. coefficient     DIISMaxC        ....  10.000
 MO-DIIS                CNVKDIIS        .... off
 Trust-Rad. Augm. Hess. CNVTRAH         .... auto
   Auto Start mean grad. ratio tolernc. ....  1.125000
   Auto Start start iteration           ....    50
   Auto Start num. interpolation iter.  ....    10
   Max. Number of Micro iterations      ....    24
   Max. Number of Macro iterations      .... Maxiter - #DIIS iter
   Number of Davidson start vectors     ....     2
   Converg. threshold    (grad. norm)   ....   1.000e-05
   Grad. Scal. Fac. for Micro threshold ....   0.100
   Minimum threshold for Micro iter.    ....   1.000e-02
   NR start threshold (gradient norm)   ....   1.000e-04
   Initial trust radius                 ....   0.400
   Minimum AH scaling param. (alpha)    ....   1.000
   Maximum AH scaling param. (alpha)    .... 1000.000
   Quad. conv. algorithm                .... NR
   White noise on init. David. guess    .... on
   Maximum white noise                  ....   0.010
   Pseudo random numbers                .... off
   Inactive MOs                         .... canonical
   Orbital update algorithm             .... Taylor
   Preconditioner                       .... Diag
   Full preconditioner red. dimension   ....   250
 SOSCF                 CNVSOSCF           .... on
   Start iteration     SOSCFMaxIt         ....   150
   Startup grad/error  SOSCFStart         ....  0.003300
   Hessian update      SOSCFHessUp        .... L-BFGS
   Autom. constraints  SOSCFAutoConstrain .... off
 Level Shifting         CNVShift        .... on
   Level shift para.    LevelShift      ....    0.2500
   Turn off err/grad.   ShiftErr        ....    0.0010
 Zerner damping         CNVZerner       .... off
 Static damping         CNVDamp         .... on
   Fraction old density DampFac         ....    0.7000
   Max. Damping (<1)    DampMax         ....    0.9800
   Min. Damping (>=0)   DampMin         ....    0.0000
   Turn off err/grad.   DampErr         ....    0.1000

SCF Procedure:
 Maximum # iterations   MaxIter         ....   125
 SCF integral mode      SCFMode         .... Direct
   Integral package                     .... SHARK and LIBINT hybrid scheme
 Reset frequency        DirectResetFreq ....    20
 Integral Threshold     Thresh          ....  2.500e-11 Eh
 Primitive CutOff       TCut            ....  2.500e-12 Eh

Convergence Tolerance:
 Convergence Check Mode ConvCheckMode   .... Total+1el-Energy
 Convergence forced     ConvForced      .... 0
 Energy Change          TolE            ....  1.000e-08 Eh
 1-El. energy change                    ....  1.000e-05 Eh
 Orbital Gradient       TolG            ....  1.000e-05
 Orbital Rotation angle TolX            ....  1.000e-05
 DIIS Error             TolErr          ....  5.000e-07

------------------------------
INITIAL GUESS: MODEL POTENTIAL
------------------------------
Loading Hartree-Fock densities                     ... done
Calculating cut-offs                               ... done
Initializing the effective Hamiltonian             ... done
Setting up the integral package (SHARK)            ... done
Starting the Coulomb interaction                   ... done (   0.1 sec)
Making the grid                                    ... done (   0.1 sec)
Mapping shells                                     ... done
Starting the XC term evaluation                    ... done (   0.2 sec)
  promolecular density results
     # of electrons  =     76.996786356
     EX              =   -122.123473157
     EC              =     -3.101270601
     EX+EC           =   -125.224743758
Transforming the Hamiltonian                       ... done (   0.0 sec)
Diagonalizing the Hamiltonian                      ... done (   0.0 sec)
Back transforming the eigenvectors                 ... done (   0.0 sec)
Now organizing SCF variables                       ... done
                      ------------------
                      INITIAL GUESS DONE (   0.4 sec)
                      ------------------
             **** ENERGY FILE WAS UPDATED (job.en.tmp) ****
Finished Guess after   0.4 sec
Maximum memory used throughout the entire GUESS-calculation: 24.0 MB

-------------------------------------------------------------------------------------------
                                      ORCA LEAN-SCF
                              memory conserving SCF solver
-------------------------------------------------------------------------------------------

----------------------------------------D-I-I-S--------------------------------------------
Iteration    Energy (Eh)           Delta-E    RMSDP     MaxDP     DIISErr   Damp  Time(sec)
-------------------------------------------------------------------------------------------
               ***  Starting incremental Fock matrix formation  ***
    1    -2806.0099931084987475     0.00e+00  6.31e-04  1.19e-02  6.86e-02  0.700   1.2
Warning: op=1 Small HOMO/LUMO gap (   0.080) - skipping pre-diagonalization
         Will do a full diagonalization
    2    -2806.0757099241227479    -6.57e-02  4.84e-04  1.13e-02  3.06e-02  0.700   1.1
                               ***Turning on AO-DIIS***
    3    -2806.0977211013660053    -2.20e-02  2.44e-04  6.66e-03  1.05e-02  0.700   1.0
    4    -2806.1106374682576643    -1.29e-02  5.74e-04  1.41e-02  6.96e-03  0.000   1.0
                              *** Initializing SOSCF ***
---------------------------------------S-O-S-C-F--------------------------------------
Iteration    Energy (Eh)           Delta-E    RMSDP     MaxDP     MaxGrad    Time(sec)
--------------------------------------------------------------------------------------
    5    -2806.1413082844865130    -3.07e-02  1.61e-04  4.52e-03  3.29e-03     1.0
               *** Restarting incremental Fock matrix formation ***
    6    -2806.1418121094575326    -5.04e-04  1.38e-04  4.06e-03  2.43e-03     1.2
    7    -2806.1418659083001330    -5.38e-05  9.86e-05  2.66e-03  2.86e-03     0.9
    8    -2806.1419379359294908    -7.20e-05  8.58e-05  2.51e-03  1.24e-03     0.9
    9    -2806.1419583693268578    -2.04e-05  3.43e-05  8.69e-04  6.58e-04     0.9
   10    -2806.1419637959770625    -5.43e-06  3.13e-05  8.93e-04  3.91e-04     0.9
   11    -2806.1419697810742946    -5.99e-06  5.56e-06  2.27e-04  1.79e-04     0.9
   12    -2806.1419700486585498    -2.68e-07  5.90e-06  1.88e-04  1.21e-04     0.8
   13    -2806.1419705575290209    -5.09e-07  2.67e-06  9.65e-05  4.36e-05     0.8
   14    -2806.1419705824473567    -2.49e-08  1.31e-06  3.81e-05  4.85e-05     0.8
   15    -2806.1419706055139613    -2.31e-08  1.06e-06  4.86e-05  4.71e-06     0.7
   16    -2806.1419706064525599    -9.39e-10  3.62e-07  1.11e-05  4.59e-06     0.7
                 **** Energy Check signals convergence ****

               *****************************************************
               *                     SUCCESS                       *
               *           SCF CONVERGED AFTER  16 CYCLES          *
               *****************************************************

             **** ENERGY FILE WAS UPDATED (job.en.tmp) ****

----------------
TOTAL SCF ENERGY
----------------

Total Energy       :      -2806.14197059923117 Eh          -76359.00504 eV

Components:
Nuclear Repulsion  :        444.10232709134584 Eh           12084.63869 eV
Electronic Energy  :      -3250.24429769057679 Eh          -88443.64373 eV
One Electron Energy:      -4777.32762117685343 Eh         -129997.69353 eV
Two Electron Energy:       1527.08332348627641 Eh           41554.04980 eV

Virial components:
Potential Energy   :      -5607.65324759833402 Eh         -152592.00249 eV
Kinetic Energy     :       2801.51127699910285 Eh           76232.99746 eV
Virial Ratio       :          2.00165292698914

DFT components:
N(Alpha)           :       39.000022195691 electrons
N(Beta)            :       38.000015941903 electrons
N(Total)           :       77.000038137594 electrons
E(X)               :     -122.771654730580 Eh       
E(C)               :       -3.100191685994 Eh       
E(XC)              :     -125.871846416574 Eh       

---------------
SCF CONVERGENCE
---------------

  Last Energy change         ...    9.3860e-10  Tolerance :   1.0000e-08
  Last MAX-Density change    ...    1.1091e-05  Tolerance :   1.0000e-07
  Last RMS-Density change    ...    3.6231e-07  Tolerance :   5.0000e-09
  Last DIIS Error            ...    3.2889e-03  Tolerance :   5.0000e-07
  Last Orbital Gradient      ...    4.5910e-06  Tolerance :   1.0000e-05
  Last Orbital Rotation      ...    1.0016e-05  Tolerance :   1.0000e-05


----------------------
UHF SPIN CONTAMINATION
----------------------

Warning: in a DFT calculation there is little theoretical justification to 
         calculate <S**2> as in Hartree-Fock theory. We will do it anyways
         but you should keep in mind that the values have only limited relevance

Expectation value of <S**2>     :     0.766578
Ideal value S*(S+1) for S=0.5   :     0.750000
Deviation                       :     0.016578

----------------
ORBITAL ENERGIES
----------------
                 SPIN UP ORBITALS
  NO   OCC          E(Eh)            E(eV) 
   0   1.0000    -481.014934    -13089.0818 
   1   1.0000     -61.794627     -1681.5173 
   2   1.0000     -55.699763     -1515.6676 
   3   1.0000     -55.696238     -1515.5717 
   4   1.0000     -55.696145     -1515.5691 
   5   1.0000      -9.952094      -270.8102 
   6   1.0000      -9.917061      -269.8570 
   7   1.0000      -9.917041      -269.8564 
   8   1.0000      -9.914388      -269.7842 
   9   1.0000      -9.912796      -269.7409 
  10   1.0000      -9.912745      -269.7395 
  11   1.0000      -8.391250      -228.3375 
  12   1.0000      -6.266759      -170.5272 
  13   1.0000      -6.254290      -170.1879 
  14   1.0000      -6.253901      -170.1773 
  15   1.0000      -2.466389       -67.1139 
  16   1.0000      -2.463432       -67.0334 
  17   1.0000      -2.463153       -67.0258 
  18   1.0000      -2.453640       -66.7669 
  19   1.0000      -2.453638       -66.7669 
  20   1.0000      -0.810152       -22.0454 
  21   1.0000      -0.730423       -19.8758 
  22   1.0000      -0.696093       -18.9416 
  23   1.0000      -0.663334       -18.0502 
  24   1.0000      -0.565664       -15.3925 
  25   1.0000      -0.561962       -15.2918 
  26   1.0000      -0.486332       -13.2338 
  27   1.0000      -0.434582       -11.8256 
  28   1.0000      -0.422448       -11.4954 
  29   1.0000      -0.402692       -10.9578 
  30   1.0000      -0.390260       -10.6195 
  31   1.0000      -0.377568       -10.2742 
  32   1.0000      -0.320468        -8.7204 
  33   1.0000      -0.318970        -8.6796 
  34   1.0000      -0.306314        -8.3352 
  35   1.0000      -0.259477        -7.0607 
  36   1.0000      -0.235703        -6.4138 
  37   1.0000      -0.234231        -6.3738 
  38   1.0000      -0.166779        -4.5383 
  39   0.0000      -0.061871        -1.6836 
  40   0.0000      -0.041599        -1.1320 
  41   0.0000       0.016079         0.4375 
  42   0.0000       0.035349         0.9619 
  43   0.0000       0.052278         1.4226 
  44   0.0000       0.067791         1.8447 
  45   0.0000       0.070863         1.9283 
  46   0.0000       0.084416         2.2971 
  47   0.0000       0.091018         2.4767 
  48   0.0000       0.133524         3.6334 
  49   0.0000       0.142745         3.8843 

                 SPIN DOWN ORBITALS
  NO   OCC          E(Eh)            E(eV) 
   0   1.0000    -481.014390    -13089.0670 
   1   1.0000     -61.794344     -1681.5096 
   2   1.0000     -55.698733     -1515.6396 
   3   1.0000     -55.695983     -1515.5648 
   4   1.0000     -55.695890     -1515.5622 
   5   1.0000      -9.952442      -270.8197 
   6   1.0000      -9.914240      -269.7802 
   7   1.0000      -9.914233      -269.7800 
   8   1.0000      -9.912987      -269.7461 
   9   1.0000      -9.912976      -269.7458 
  10   1.0000      -9.909754      -269.6581 
  11   1.0000      -8.390544      -228.3183 
  12   1.0000      -6.265175      -170.4841 
  13   1.0000      -6.253871      -170.1765 
  14   1.0000      -6.253492      -170.1662 
  15   1.0000      -2.464585       -67.0648 
  16   1.0000      -2.462008       -66.9946 
  17   1.0000      -2.461747       -66.9875 
  18   1.0000      -2.453330       -66.7585 
  19   1.0000      -2.453328       -66.7584 
  20   1.0000      -0.804394       -21.8887 
  21   1.0000      -0.724822       -19.7234 
  22   1.0000      -0.691094       -18.8056 
  23   1.0000      -0.654983       -17.8230 
  24   1.0000      -0.562310       -15.3012 
  25   1.0000      -0.555734       -15.1223 
  26   1.0000      -0.483382       -13.1535 
  27   1.0000      -0.428816       -11.6687 
  28   1.0000      -0.419799       -11.4233 
  29   1.0000      -0.397451       -10.8152 
  30   1.0000      -0.388788       -10.5795 
  31   1.0000      -0.370259       -10.0753 
  32   1.0000      -0.318752        -8.6737 
  33   1.0000      -0.314194        -8.5497 
  34   1.0000      -0.295784        -8.0487 
  35   1.0000      -0.249393        -6.7863 
  36   1.0000      -0.230787        -6.2800 
  37   1.0000      -0.230693        -6.2775 
  38   0.0000      -0.138931        -3.7805 
  39   0.0000      -0.051338        -1.3970 
  40   0.0000      -0.032984        -0.8975 
  41   0.0000       0.020582         0.5601 
  42   0.0000       0.038960         1.0602 
  43   0.0000       0.052468         1.4277 
  44   0.0000       0.070900         1.9293 
  45   0.0000       0.080366         2.1869 
  46   0.0000       0.086094         2.3427 
  47   0.0000       0.092749         2.5238 
  48   0.0000       0.137416         3.7393 
*Only the first 10 virtual orbitals were printed.

                    ********************************
                    * MULLIKEN POPULATION ANALYSIS *
                    ********************************

--------------------------------------------
MULLIKEN ATOMIC CHARGES AND SPIN POPULATIONS
--------------------------------------------
   0 C :   -0.062019   -0.118577
   1 C :   -0.201913    0.325902
   2 H :    0.095418   -0.022440
   3 C :    0.227562   -0.040156
   4 C :   -0.089801    0.371110
   5 Br:   -0.212006    0.214414
   6 H :    0.104430   -0.015731
   7 H :    0.107432    0.082561
   8 C :   -0.061880   -0.118561
   9 H :    0.095254    0.005945
  10 H :    0.095128    0.005946
  11 C :   -0.202138    0.325345
  12 H :    0.104533   -0.015759
Sum of atomic charges         :   -0.0000000
Sum of atomic spin populations:    1.0000000

-----------------------------------------------------
MULLIKEN REDUCED ORBITAL CHARGES AND SPIN POPULATIONS
-----------------------------------------------------
CHARGE
  0 C s       :     3.152199  s :     3.152199
      pz      :     0.958487  p :     2.812481
      px      :     0.931825
      py      :     0.922169
      dz2     :     0.004497  d :     0.090366
      dxz     :     0.011379
      dyz     :     0.016471
      dx2y2   :     0.021984
      dxy     :     0.036034
      f0      :     0.001471  f :     0.006973
      f+1     :     0.000569
      f-1     :     0.000586
      f+2     :     0.000996
      f-2     :     0.000311
      f+3     :     0.002135
      f-3     :     0.000905

  1 C s       :     3.249141  s :     3.249141
      pz      :     0.956533  p :     2.849982
      px      :     0.965982
      py      :     0.927466
      dz2     :     0.005516  d :     0.095777
      dxz     :     0.008277
      dyz     :     0.020423
      dx2y2   :     0.026920
      dxy     :     0.034642
      f0      :     0.001285  f :     0.007013
      f+1     :     0.000700
      f-1     :     0.000608
      f+2     :     0.000613
      f-2     :     0.000679
      f+3     :     0.002158
      f-3     :     0.000970

  2 H s       :     0.882734  s :     0.882734
      pz      :     0.005154  p :     0.021848
      px      :     0.004021
      py      :     0.012673

  3 C s       :     2.850711  s :     2.850711
      pz      :     0.892890  p :     2.733327
      px      :     0.929032
      py      :     0.911404
      dz2     :     0.016880  d :     0.180658
      dxz     :     0.031263
      dyz     :     0.040869
      dx2y2   :     0.058259
      dxy     :     0.033387
      f0      :     0.000922  f :     0.007742
      f+1     :     0.000232
      f-1     :     0.000917
      f+2     :     0.000913
      f-2     :     0.001368
      f+3     :     0.002458
      f-3     :     0.000932

  4 C s       :     3.167189  s :     3.167189
      pz      :     0.953110  p :     2.825225
      px      :     0.923497
      py      :     0.948618
      dz2     :     0.005094  d :     0.090417
      dxz     :     0.021234
      dyz     :     0.006508
      dx2y2   :     0.037459
      dxy     :     0.020123
      f0      :     0.001415  f :     0.006970
      f+1     :     0.000547
      f-1     :     0.000640
      f+2     :     0.000209
      f-2     :     0.001069
      f+3     :     0.002181
      f-3     :     0.000909

  5 Brs       :     7.971717  s :     7.971717
      pz      :     5.754662  p :    17.186803
      px      :     5.959089
      py      :     5.473052
      dz2     :     2.010428  d :    10.048262
      dxz     :     2.002066
      dyz     :     2.017246
      dx2y2   :     2.011973
      dxy     :     2.006550
      f0      :     0.000658  f :     0.005224
      f+1     :     0.000036
      f-1     :     0.001246
      f+2     :     0.001493
      f-2     :     0.000518
      f+3     :     0.000530
      f-3     :     0.000742

  6 H s       :     0.873543  s :     0.873543
      pz      :     0.005129  p :     0.022026
      px      :     0.010133
      py      :     0.006764

  7 H s       :     0.869901  s :     0.869901
      pz      :     0.009847  p :     0.022667
      px      :     0.004324
      py      :     0.008496

  8 C s       :     3.152050  s :     3.152050
      pz      :     0.957322  p :     2.812552
      px      :     0.933460
      py      :     0.921770
      dz2     :     0.004740  d :     0.090307
      dxz     :     0.008650
      dyz     :     0.018756
      dx2y2   :     0.026083
      dxy     :     0.032078
      f0      :     0.001441  f :     0.006970
      f+1     :     0.000625
      f-1     :     0.000581
      f+2     :     0.000753
      f-2     :     0.000530
      f+3     :     0.002148
      f-3     :     0.000892

  9 H s       :     0.882895  s :     0.882895
      pz      :     0.004919  p :     0.021851
      px      :     0.011292
      py      :     0.005641

 10 H s       :     0.883035  s :     0.883035
      pz      :     0.004991  p :     0.021838
      px      :     0.010003
      py      :     0.006843

 11 C s       :     3.249409  s :     3.249409
      pz      :     0.959820  p :     2.849896
      px      :     0.964088
      py      :     0.925989
      dz2     :     0.004884  d :     0.095817
      dxz     :     0.011421
      dyz     :     0.017381
      dx2y2   :     0.021378
      dxy     :     0.040753
      f0      :     0.001333  f :     0.007015
      f+1     :     0.000641
      f-1     :     0.000601
      f+2     :     0.000831
      f-2     :     0.000475
      f+3     :     0.002206
      f-3     :     0.000927

 12 H s       :     0.873429  s :     0.873429
      pz      :     0.005091  p :     0.022039
      px      :     0.011400
      py      :     0.005548


SPIN
  0 C s       :    -0.010887  s :    -0.010887
      pz      :    -0.090003  p :    -0.121277
      px      :    -0.013533
      py      :    -0.017741
      dz2     :     0.000441  d :     0.012632
      dxz     :     0.003257
      dyz     :     0.009547
      dx2y2   :    -0.000265
      dxy     :    -0.000347
      f0      :     0.000131  f :     0.000955
      f+1     :     0.000069
      f-1     :     0.000080
      f+2     :     0.000492
      f-2     :     0.000123
      f+3     :     0.000037
      f-3     :     0.000023

  1 C s       :     0.020886  s :     0.020886
      pz      :     0.272940  p :     0.305113
      px      :     0.018201
      py      :     0.013972
      dz2     :    -0.001034  d :     0.000761
      dxz     :     0.000369
      dyz     :    -0.000024
      dx2y2   :     0.000706
      dxy     :     0.000744
      f0      :    -0.000333  f :    -0.000858
      f+1     :    -0.000261
      f-1     :    -0.000244
      f+2     :    -0.000000
      f-2     :     0.000001
      f+3     :     0.000002
      f-3     :    -0.000022

  2 H s       :    -0.024534  s :    -0.024534
      pz      :     0.002075  p :     0.002094
      px      :    -0.000012
      py      :     0.000031

  3 C s       :    -0.025324  s :    -0.025324
      pz      :    -0.034589  p :    -0.039900
      px      :    -0.014274
      py      :     0.008963
      dz2     :     0.002299  d :     0.023852
      dxz     :     0.001607
      dyz     :     0.020608
      dx2y2   :    -0.000337
      dxy     :    -0.000326
      f0      :     0.000278  f :     0.001216
      f+1     :     0.000054
      f-1     :     0.000041
      f+2     :     0.000640
      f-2     :     0.000124
      f+3     :     0.000032
      f-3     :     0.000046

  4 C s       :     0.018710  s :     0.018710
      pz      :     0.309805  p :     0.352252
      px      :     0.019386
      py      :     0.023061
      dz2     :    -0.001232  d :     0.001222
      dxz     :    -0.000912
      dyz     :     0.001029
      dx2y2   :     0.001851
      dxy     :     0.000486
      f0      :    -0.000427  f :    -0.001075
      f+1     :    -0.000274
      f-1     :    -0.000277
      f+2     :     0.000001
      f-2     :    -0.000060
      f+3     :    -0.000010
      f-3     :    -0.000029

  5 Brs       :     0.004184  s :     0.004184
      pz      :     0.076605  p :     0.207868
      px      :    -0.000472
      py      :     0.131735
      dz2     :    -0.000115  d :     0.001993
      dxz     :     0.000001
      dyz     :     0.001129
      dx2y2   :     0.000859
      dxy     :     0.000119
      f0      :     0.000059  f :     0.000370
      f+1     :     0.000004
      f-1     :     0.000042
      f+2     :     0.000148
      f-2     :     0.000033
      f+3     :     0.000028
      f-3     :     0.000057

  6 H s       :    -0.017386  s :    -0.017386
      pz      :     0.001568  p :     0.001654
      px      :     0.000078
      py      :     0.000007

  7 H s       :     0.082391  s :     0.082391
      pz      :     0.000112  p :     0.000170
      px      :     0.000182
      py      :    -0.000124

  8 C s       :    -0.010885  s :    -0.010885
      pz      :    -0.089993  p :    -0.121240
      px      :    -0.012490
      py      :    -0.018756
      dz2     :     0.000655  d :     0.012610
      dxz     :     0.001431
      dyz     :     0.010962
      dx2y2   :    -0.000234
      dxy     :    -0.000204
      f0      :     0.000128  f :     0.000955
      f+1     :     0.000083
      f-1     :     0.000070
      f+2     :     0.000315
      f-2     :     0.000289
      f+3     :     0.000034
      f-3     :     0.000036

  9 H s       :     0.006503  s :     0.006503
      pz      :    -0.000514  p :    -0.000558
      px      :    -0.000005
      py      :    -0.000039

 10 H s       :     0.006504  s :     0.006504
      pz      :    -0.000513  p :    -0.000558
      px      :    -0.000012
      py      :    -0.000034

 11 C s       :     0.020838  s :     0.020838
      pz      :     0.270884  p :     0.304610
      px      :     0.019322
      py      :     0.014405
      dz2     :    -0.000990  d :     0.000753
      dxz     :     0.000380
      dyz     :    -0.000071
      dx2y2   :     0.000356
      dxy     :     0.001078
      f0      :    -0.000338  f :    -0.000857
      f+1     :    -0.000247
      f-1     :    -0.000240
      f+2     :    -0.000022
      f-2     :     0.000006
      f+3     :    -0.000006
      f-3     :    -0.000010

 12 H s       :    -0.017416  s :    -0.017416
      pz      :     0.001578  p :     0.001658
      px      :     0.000080
      py      :     0.000000



                     *******************************
                     * LOEWDIN POPULATION ANALYSIS *
                     *******************************

-------------------------------------------
LOEWDIN ATOMIC CHARGES AND SPIN POPULATIONS
-------------------------------------------
   0 C :   -0.137347   -0.013307
   1 C :   -0.127785    0.218165
   2 H :    0.143399   -0.000181
   3 C :   -0.420363    0.083554
   4 C :   -0.130014    0.252266
   5 Br:    0.165829    0.197966
   6 H :    0.146995   -0.000485
   7 H :    0.187642    0.057650
   8 C :   -0.137174   -0.013386
   9 H :    0.144888    0.000217
  10 H :    0.144969    0.000221
  11 C :   -0.127954    0.217799
  12 H :    0.146915   -0.000477

----------------------------------------------------
LOEWDIN REDUCED ORBITAL CHARGES AND SPIN POPULATIONS
----------------------------------------------------
CHARGE
  0 C s       :     2.771586  s :     2.771586
      pz      :     0.879905  p :     2.934109
      px      :     1.014181
      py      :     1.040023
      dz2     :     0.025933  d :     0.388928
      dxz     :     0.037597
      dyz     :     0.057435
      dx2y2   :     0.110284
      dxy     :     0.157679
      f0      :     0.003158  f :     0.042722
      f+1     :     0.003496
      f-1     :     0.004043
      f+2     :     0.006888
      f-2     :     0.002264
      f+3     :     0.014763
      f-3     :     0.008111

  1 C s       :     2.776491  s :     2.776491
      pz      :     0.868215  p :     2.921248
      px      :     0.994085
      py      :     1.058948
      dz2     :     0.027857  d :     0.387271
      dxz     :     0.027156
      dyz     :     0.066324
      dx2y2   :     0.124621
      dxy     :     0.141313
      f0      :     0.003553  f :     0.042775
      f+1     :     0.003642
      f-1     :     0.004303
      f+2     :     0.004393
      f-2     :     0.004520
      f+3     :     0.014299
      f-3     :     0.008065

  2 H s       :     0.797439  s :     0.797439
      pz      :     0.014065  p :     0.059162
      px      :     0.011126
      py      :     0.033970

  3 C s       :     2.762611  s :     2.762611
      pz      :     0.938661  p :     3.005006
      px      :     1.093366
      py      :     0.972979
      dz2     :     0.070933  d :     0.596610
      dxz     :     0.090549
      dyz     :     0.142324
      dx2y2   :     0.165549
      dxy     :     0.127255
      f0      :     0.004564  f :     0.056136
      f+1     :     0.004580
      f-1     :     0.005925
      f+2     :     0.007951
      f-2     :     0.008283
      f+3     :     0.016108
      f-3     :     0.008726

  4 C s       :     2.771934  s :     2.771934
      pz      :     0.869741  p :     2.925588
      px      :     1.068150
      py      :     0.987696
      dz2     :     0.026303  d :     0.389523
      dxz     :     0.075826
      dyz     :     0.017979
      dx2y2   :     0.164895
      dxy     :     0.104519
      f0      :     0.003552  f :     0.042970
      f+1     :     0.004453
      f-1     :     0.003130
      f+2     :     0.001572
      f-2     :     0.007295
      f+3     :     0.014922
      f-3     :     0.008045

  5 Brs       :     7.680938  s :     7.680938
      pz      :     5.720735  p :    17.037965
      px      :     5.891905
      py      :     5.425326
      dz2     :     2.020880  d :    10.104846
      dxz     :     2.004686
      dyz     :     2.040808
      dx2y2   :     2.024064
      dxy     :     2.014409
      f0      :     0.001169  f :     0.010421
      f+1     :     0.000063
      f-1     :     0.002472
      f+2     :     0.003343
      f-2     :     0.000997
      f+3     :     0.000954
      f-3     :     0.001423

  6 H s       :     0.793017  s :     0.793017
      pz      :     0.014063  p :     0.059988
      px      :     0.027702
      py      :     0.018222

  7 H s       :     0.754197  s :     0.754197
      pz      :     0.026808  p :     0.058161
      px      :     0.011621
      py      :     0.019732

  8 C s       :     2.771628  s :     2.771628
      pz      :     0.880448  p :     2.934091
      px      :     1.002675
      py      :     1.050968
      dz2     :     0.027075  d :     0.388753
      dxz     :     0.026767
      dyz     :     0.066748
      dx2y2   :     0.126977
      dxy     :     0.141187
      f0      :     0.003086  f :     0.042702
      f+1     :     0.003484
      f-1     :     0.004162
      f+2     :     0.005192
      f-2     :     0.003938
      f+3     :     0.014776
      f-3     :     0.008065

  9 H s       :     0.796494  s :     0.796494
      pz      :     0.013091  p :     0.058618
      px      :     0.030190
      py      :     0.015337

 10 H s       :     0.796465  s :     0.796465
      pz      :     0.013273  p :     0.058566
      px      :     0.026808
      py      :     0.018485

 11 C s       :     2.776452  s :     2.776452
      pz      :     0.867614  p :     2.921278
      px      :     1.002110
      py      :     1.051554
      dz2     :     0.026347  d :     0.387432
      dxz     :     0.038142
      dyz     :     0.056502
      dx2y2   :     0.109059
      dxy     :     0.157383
      f0      :     0.003688  f :     0.042793
      f+1     :     0.003601
      f-1     :     0.004056
      f+2     :     0.005972
      f-2     :     0.003042
      f+3     :     0.014350
      f-3     :     0.008083

 12 H s       :     0.793048  s :     0.793048
      pz      :     0.013950  p :     0.060037
      px      :     0.031119
      py      :     0.014968


SPIN
  0 C s       :    -0.002952  s :    -0.002952
      pz      :    -0.062019  p :    -0.070438
      px      :    -0.003927
      py      :    -0.004492
      dz2     :     0.000628  d :     0.054370
      dxz     :     0.015474
      dyz     :     0.034678
      dx2y2   :     0.001789
      dxy     :     0.001801
      f0      :     0.000574  f :     0.005713
      f+1     :     0.000073
      f-1     :     0.000194
      f+2     :     0.003639
      f-2     :     0.000870
      f+3     :     0.000160
      f-3     :     0.000204

  1 C s       :     0.006048  s :     0.006048
      pz      :     0.211544  p :     0.220702
      px      :     0.004495
      py      :     0.004664
      dz2     :    -0.001266  d :    -0.007019
      dxz     :     0.000359
      dyz     :    -0.004563
      dx2y2   :    -0.000679
      dxy     :    -0.000870
      f0      :    -0.000371  f :    -0.001566
      f+1     :    -0.000272
      f-1     :    -0.000271
      f+2     :    -0.000320
      f-2     :    -0.000134
      f+3     :    -0.000024
      f-3     :    -0.000173

  2 H s       :    -0.007411  s :    -0.007411
      pz      :     0.006149  p :     0.007230
      px      :     0.000089
      py      :     0.000992

  3 C s       :    -0.000239  s :    -0.000239
      pz      :    -0.015648  p :    -0.012736
      px      :    -0.004702
      py      :     0.007615
      dz2     :     0.006529  d :     0.087781
      dxz     :     0.008609
      dyz     :     0.068230
      dx2y2   :     0.002583
      dxy     :     0.001831
      f0      :     0.002050  f :     0.008747
      f+1     :     0.000181
      f-1     :     0.000232
      f+2     :     0.004559
      f-2     :     0.000958
      f+3     :     0.000186
      f-3     :     0.000581

  4 C s       :     0.007037  s :     0.007037
      pz      :     0.245243  p :     0.257506
      px      :     0.005599
      py      :     0.006663
      dz2     :    -0.001297  d :    -0.009785
      dxz     :    -0.008040
      dyz     :     0.001812
      dx2y2   :    -0.000976
      dxy     :    -0.001283
      f0      :    -0.000538  f :    -0.002492
      f+1     :    -0.000313
      f-1     :    -0.000273
      f+2     :    -0.000194
      f-2     :    -0.000827
      f+3     :    -0.000151
      f-3     :    -0.000197

  5 Brs       :     0.005591  s :     0.005591
      pz      :     0.065841  p :     0.183394
      px      :     0.000590
      py      :     0.116964
      dz2     :     0.000105  d :     0.008532
      dxz     :    -0.000026
      dyz     :     0.005232
      dx2y2   :     0.002955
      dxy     :     0.000266
      f0      :     0.000013  f :     0.000449
      f+1     :     0.000002
      f-1     :     0.000050
      f+2     :     0.000342
      f-2     :    -0.000011
      f+3     :    -0.000009
      f-3     :     0.000063

  6 H s       :    -0.006107  s :    -0.006107
      pz      :     0.004752  p :     0.005622
      px      :     0.000581
      py      :     0.000289

  7 H s       :     0.058676  s :     0.058676
      pz      :    -0.000631  p :    -0.001025
      px      :    -0.000008
      py      :    -0.000387

  8 C s       :    -0.002951  s :    -0.002951
      pz      :    -0.062099  p :    -0.070435
      px      :    -0.003459
      py      :    -0.004877
      dz2     :     0.001362  d :     0.054293
      dxz     :     0.008895
      dyz     :     0.039816
      dx2y2   :     0.001700
      dxy     :     0.002520
      f0      :     0.000551  f :     0.005707
      f+1     :     0.000164
      f-1     :     0.000131
      f+2     :     0.002444
      f-2     :     0.002007
      f+3     :     0.000159
      f-3     :     0.000251

  9 H s       :     0.002012  s :     0.002012
      pz      :    -0.001395  p :    -0.001795
      px      :    -0.000244
      py      :    -0.000157

 10 H s       :     0.002014  s :     0.002014
      pz      :    -0.001394  p :    -0.001793
      px      :    -0.000225
      py      :    -0.000174

 11 C s       :     0.006038  s :     0.006038
      pz      :     0.209852  p :     0.220346
      px      :     0.005727
      py      :     0.004766
      dz2     :    -0.001130  d :    -0.007020
      dxz     :     0.000200
      dyz     :    -0.004449
      dx2y2   :    -0.000924
      dxy     :    -0.000717
      f0      :    -0.000372  f :    -0.001565
      f+1     :    -0.000253
      f-1     :    -0.000271
      f+2     :    -0.000467
      f-2     :    -0.000041
      f+3     :    -0.000039
      f-3     :    -0.000121

 12 H s       :    -0.006113  s :    -0.006113
      pz      :     0.004762  p :     0.005636
      px      :     0.000686
      py      :     0.000188



                      *****************************
                      * MAYER POPULATION ANALYSIS *
                      *****************************

  NA   - Mulliken gross atomic population
  ZA   - Total nuclear charge
  QA   - Mulliken gross atomic charge
  VA   - Mayer's total valence
  BVA  - Mayer's bonded valence
  FA   - Mayer's free valence

  ATOM       NA         ZA         QA         VA         BVA        FA
  0 C      6.0620     6.0000    -0.0620     3.9410     3.9323     0.0087
  1 C      6.2019     6.0000    -0.2019     4.0490     3.9724     0.0766
  2 H      0.9046     1.0000     0.0954     0.9643     0.9637     0.0006
  3 C      5.7724     6.0000     0.2276     3.9558     3.9516     0.0042
  4 C      6.0898     6.0000    -0.0898     3.9818     3.8815     0.1002
  5 Br    35.2120    35.0000    -0.2120     1.0778     1.0301     0.0477
  6 H      0.8956     1.0000     0.1044     0.9823     0.9820     0.0003
  7 H      0.8926     1.0000     0.1074     0.9689     0.9617     0.0073
  8 C      6.0619     6.0000    -0.0619     3.9407     3.9319     0.0087
  9 H      0.9047     1.0000     0.0953     0.9655     0.9655     0.0000
 10 H      0.9049     1.0000     0.0951     0.9656     0.9655     0.0000
 11 C      6.2021     6.0000    -0.2021     4.0491     3.9728     0.0764
 12 H      0.8955     1.0000     0.1045     0.9823     0.9820     0.0003

  Mayer bond orders larger than 0.100000
B(  0-C ,  1-C ) :   1.5072 B(  0-C ,  4-C ) :   1.3397 B(  0-C , 10-H ) :   0.9613 
B(  1-C ,  3-C ) :   1.1567 B(  1-C , 11-C ) :   0.1026 B(  1-C , 12-H ) :   0.9598 
B(  2-H ,  4-C ) :   0.9638 B(  3-C ,  5-Br) :   0.7115 B(  3-C ,  7-H ) :   0.8525 
B(  3-C , 11-C ) :   1.1568 B(  4-C ,  8-C ) :   1.3389 B(  6-H , 11-C ) :   0.9598 
B(  8-C ,  9-H ) :   0.9613 B(  8-C , 11-C ) :   1.5075 

-------
TIMINGS
-------

Total SCF time: 0 days 0 hours 0 min 15 sec 

Total time                  ....      15.726 sec
Sum of individual times     ....      15.033 sec  ( 95.6%)

SCF preparation             ....       0.023 sec  (  0.1%)
Fock matrix formation       ....      14.825 sec  ( 94.3%)
  Startup                   ....       0.003 sec  (  0.0% of F)
  Split-RI-J                ....       2.984 sec  ( 20.1% of F)
  XC integration            ....      12.487 sec  ( 84.2% of F)
    Basis function eval.    ....       2.475 sec  ( 19.8% of XC)
    Density eval.           ....       2.576 sec  ( 20.6% of XC)
    XC-Functional eval.     ....       0.183 sec  (  1.5% of XC)
    XC-Potential eval.      ....       7.012 sec  ( 56.2% of XC)
Diagonalization             ....       0.000 sec  (  0.0%)
Density matrix formation    ....       0.017 sec  (  0.1%)
Total Energy calculation    ....       0.018 sec  (  0.1%)
Population analysis         ....       0.006 sec  (  0.0%)
Orbital Transformation      ....       0.024 sec  (  0.2%)
Orbital Orthonormalization  ....       0.000 sec  (  0.0%)
DIIS solution               ....       0.069 sec  (  0.4%)
SOSCF solution              ....       0.051 sec  (  0.3%)
Finished LeanSCF after  15.7 sec

Maximum memory used throughout the entire LEANSCF-calculation: 29.7 MB

------------------------------------------------------------------------------
                         ORCA PROPERTY INTEGRAL CALCULATIONS
------------------------------------------------------------------------------

GBWName                                   ... job.gbw
Number of atoms                           ...     13
Number of basis functions                 ...    270
Max core memory                           ...  16384 MB

Dipole integrals                          ... YES
Quadrupole integrals                      ...  NO
Linear momentum integrals                 ...  NO
Angular momentum integrals                ...  NO
Higher moments length integrals           ...  NO
Higher moments velocity integrals         ...  NO
Kinetic energy integrals                  ...  NO
GIAO right hand sides                     ...  NO
GIAO dipole derivative integrals          ...  NO
SOC integrals                             ...  NO
EPR diamagnetic integrals (GIAO)          ...  NO
EPR gauge integrals                       ...  NO
Field gradient integrals                  ...  NO (   0 nuclei)
Spin-dipole/Fermi contact integrals       ...  NO (   0 nuclei)
Contact density integrals                 ...  NO (   0 nuclei)
Nucleus-orbit integrals                   ...  NO (   0 nuclei)
Geometric perturbations                   ...  NO (  13 nuclei)

Choice of electric origin   ... Center of mass
Position of electric origin ... ( -4.3404, -0.7415, -0.8467) 
Choice of magnetic origin   ... GIAO
Position of magnetic origin ... (  0.0000,  0.0000,  0.0000) 

Calculating integrals                     ... Electric Dipole (Length)     done (  0.0 sec)

Property integrals calculated in   0.0 sec

Maximum memory used throughout the entire PROPINT-calculation: 25.1 MB

-------------------------   --------------------
FINAL SINGLE POINT ENERGY     -2806.141970599231
-------------------------   --------------------

------------------------------------------------------------------------------
                         ORCA SCF GRADIENT CALCULATION
------------------------------------------------------------------------------

Nuc. rep. gradient        (SHARK) ... done (  0.0 sec)
HCore & Overlap gradient  (SHARK) ... done (  0.1 sec)
Split-RIJ-J gradient      (SHARK) ... done (  1.0 sec)
XC gradient                       ... done (  4.3 sec)

------------------
CARTESIAN GRADIENT
------------------

   1   C   :    0.011764959    0.016442560    0.001286309
   2   C   :    0.031806773   -0.040284805    0.009902648
   3   H   :   -0.000117181   -0.001555590    0.000193363
   4   C   :    0.005157235    0.039051497   -0.038154358
   5   C   :   -0.001683199   -0.017340294    0.001750100
   6   Br  :    0.000447334    0.019084830    0.021335072
   7   H   :    0.001389260    0.001544823   -0.001672338
   8   H   :   -0.000134893   -0.001149210    0.000985077
   9   C   :   -0.008629792    0.018075584    0.000274261
  10   H   :   -0.002522368   -0.000293490   -0.000389425
  11   H   :    0.002322249   -0.000599935   -0.000162248
  12   C   :   -0.038988020   -0.034758553    0.006434431
  13   H   :   -0.000812355    0.001782584   -0.001782891

Difference to translation invariance:
           :    0.0000000003    0.0000000001    0.0000000000

Difference to rotation invariance:
           :    0.0000825354    0.0000260758   -0.0000312881

Norm of the Cartesian gradient     ...    0.1023659300
RMS gradient                       ...    0.0163916674
MAX gradient                       ...    0.0402848050

-------
TIMINGS
-------

Total SCF gradient time     ....        5.377 sec

Densities                   ....       0.001 sec  (  0.0%)
One electron gradient       ....       0.116 sec  (  2.2%)
RI-J Coulomb gradient       ....       1.008 sec  ( 18.7%)
XC gradient                 ....       4.252 sec  ( 79.1%)

Maximum memory used throughout the entire SCFGRAD-calculation: 39.0 MB
------------------------------------------------------------------------------
                         ORCA GEOMETRY RELAXATION STEP
------------------------------------------------------------------------------

Reading the OPT-File                    .... done
Getting information on internals        .... done
Copying old internal coords+grads       .... done
Making the new internal coordinates     .... (2022 redundants) done
Validating the new internal coordinates .... (2022 redundants) done
Calculating the B-matrix                .... done
Calculating the G,G- and P matrices     .... done
Transforming gradient to internals      .... done
Projecting the internal gradient        .... done
Number of atoms                         ....  13
Number of internal coordinates          ....  60
Current Energy                          .... -2806.141970599 Eh
Current gradient norm                   ....     0.102365930 Eh/bohr
Maximum allowed component of the step   ....  0.300
Current trust radius                    ....  0.300
Evaluating the initial hessian          ....  (Almloef) done
Projecting the Hessian                  .... done
Forming the augmented Hessian           .... done
Diagonalizing the augmented Hessian     .... done
Last element of RFO vector              ....  0.970053561
Lowest eigenvalues of augmented Hessian:
 -0.013866754  0.025623254  0.025703295  0.025856813  0.025869201
Length of the computed step             ....  0.250389374
The final length of the internal step   ....  0.250389374
Converting the step to Cartesian space:
 Initial RMS(Int)=    0.0323251291
Transforming coordinates:
 Iter   0:  RMS(Cart)=    0.0466152046 RMS(Int)=    0.8115514425
 Iter   5:  RMS(Cart)=    0.0000000095 RMS(Int)=    0.0000000082
done
Storing new coordinates                 .... done

                                .--------------------.
          ----------------------|Geometry convergence|-------------------------
          Item                value                   Tolerance       Converged
          ---------------------------------------------------------------------
          RMS gradient        0.0096481526            0.0001000000      NO
          MAX gradient        0.0425086654            0.0003000000      NO
          RMS step            0.0323251291            0.0020000000      NO
          MAX step            0.1326553920            0.0040000000      NO
          -------------------------------------------------------------------------
          ........................................................
          Max(Bonds)      0.0702      Max(Angles)    2.03
          Max(Dihed)        4.98      Max(Improp)    0.00
          ---------------------------------------------------------------------

The optimization has not yet converged - more geometry cycles are needed


    ---------------------------------------------------------------------------
                         Redundant Internal Coordinates
                            (Angstroem and degrees)

        Definition                    Value    dE/dq     Step     New-Value
    ----------------------------------------------------------------------------
     1. B(C   1,C   0)                1.3941  0.007215 -0.0061    1.3881   
     2. B(C   3,C   1)                1.4095 -0.042284  0.0386    1.4481   
     3. B(C   4,C   0)                1.3955 -0.017989  0.0142    1.4097   
     4. B(C   4,H   2)                1.0898 -0.001571  0.0022    1.0920   
     5. B(Br  5,C   3)                2.0370 -0.027701  0.0702    2.1072   
     6. B(H   7,C   3)                1.1170  0.001463 -0.0023    1.1147   
     7. B(C   8,C   4)                1.3959 -0.017769  0.0140    1.4099   
     8. B(H   9,C   8)                1.0884 -0.002399  0.0034    1.0918   
     9. B(H  10,C   0)                1.0887 -0.002226  0.0031    1.0918   
    10. B(C  11,C   8)                1.3941  0.007233 -0.0061    1.3880   
    11. B(C  11,H   6)                1.0908  0.000161 -0.0002    1.0905   
    12. B(C  11,C   3)                1.4092 -0.042509  0.0388    1.4479   
    13. B(H  12,C   1)                1.0905  0.000003 -0.0000    1.0905   
    14. A(C   1,C   0,H  10)          120.04  0.002682   -0.35    119.70   
    15. A(C   1,C   0,C   4)          120.03 -0.003622    0.42    120.45   
    16. A(C   4,C   0,H  10)          119.92  0.000940   -0.07    119.85   
[...]
     33       0.012071  -0.017388   0.026898  -0.158974  -0.010253  -0.104968
     34       0.020866  -0.026392   0.045207  -0.227376  -0.016045  -0.078554
     35      -0.009933   0.009360  -0.014070   0.067036   0.006525   0.021227
     36       0.176112  -0.124071  -0.203439   0.171847   0.167341  -0.165623
     37      -0.367589   0.257237   0.428005  -0.317365  -0.334237   0.433355
     38       0.103001  -0.075345  -0.126227   0.122975   0.103274  -0.137658
                 30         31         32         33         34         35    
      0       0.013418   0.186039   0.102474  -0.030394   0.043518  -0.013300
      1       0.115159   0.003100   0.274131   0.021761  -0.028982   0.006353
      2      -0.033619   0.004290  -0.077961  -0.007213   0.009691  -0.002155
      3      -0.066782  -0.154343   0.035424   0.013572  -0.026040   0.037088
      4      -0.088187   0.119780  -0.270936   0.005759  -0.010769   0.016990
      5       0.028972  -0.035043   0.084210  -0.001358   0.002496  -0.004128
      6      -0.452197   0.581600  -0.013663   0.063165   0.003547  -0.046756
      7       0.035143  -0.045424  -0.153593   0.677614   0.003308  -0.502021
      8      -0.021984   0.028399   0.044886  -0.199700  -0.000892   0.147606
      9       0.175770   0.234815   0.012374  -0.000716   0.000594  -0.003318
     10      -0.014355  -0.018712   0.118619  -0.007226   0.000092  -0.033429
     11       0.008845   0.011662  -0.048284   0.003006  -0.000030   0.014027
     12       0.094682  -0.330310  -0.013772  -0.005336  -0.002541   0.004091
     13      -0.007844   0.026365  -0.140408  -0.057279  -0.000110   0.044117
     14       0.004758  -0.016312   0.040936   0.016876  -0.000033  -0.012988
     15       0.000153   0.000472  -0.000004  -0.000000   0.000002   0.000000
     16      -0.000013  -0.000036   0.000431  -0.000000  -0.000000  -0.000002
     17       0.000006   0.000022   0.000726   0.000001   0.000000  -0.000009
     18      -0.224493   0.094602   0.282663   0.146950   0.272373   0.392718
     19      -0.107565   0.274801   0.210582  -0.099327  -0.183164  -0.266546
     20       0.029205  -0.082384  -0.062733   0.032659   0.060510   0.087419
     21      -0.589383  -0.260071   0.011012   0.008820  -0.000975   0.039825
     22       0.045579   0.020038   0.141975   0.089337  -0.001638   0.403222
     23      -0.028937  -0.012877  -0.010931  -0.036465   0.000659  -0.165323
     24      -0.009039   0.183006  -0.049423   0.033877   0.048187   0.014966
     25      -0.114929  -0.033310   0.285551   0.016632   0.021740   0.004503
     26       0.033648   0.014159  -0.085235  -0.004045  -0.005192  -0.000879
     27      -0.205344   0.093477   0.247099  -0.410860  -0.559608  -0.161105
     28       0.250820   0.188549  -0.294760  -0.189870  -0.256509  -0.070873
     29      -0.076491  -0.053799   0.090338   0.045902   0.061812   0.017037
     30      -0.250588   0.058424  -0.298290   0.370701  -0.504406   0.138476
     31      -0.218907  -0.199253  -0.253269  -0.252164   0.340719  -0.090227
     32       0.055371   0.060893   0.064069   0.084414  -0.114055   0.030450
     33      -0.047851  -0.173605  -0.086215  -0.012219  -0.023288  -0.033407
     34       0.098378  -0.092995  -0.261550   0.007748   0.014440   0.022535
     35      -0.034990   0.018608   0.078327  -0.002607  -0.004848  -0.007576
     36      -0.198954   0.042737  -0.238788  -0.164283   0.307157  -0.436077
     37       0.136271  -0.286230   0.250477  -0.075362   0.140055  -0.201069
     38      -0.048372   0.089414  -0.087783   0.017585  -0.032878   0.046788
                 36         37         38    
      0      -0.035042   0.023532  -0.014172
      1       0.022215  -0.018206   0.011382
      2      -0.007561   0.006013  -0.003656
      3      -0.012099   0.048583  -0.037232
      4      -0.008300   0.024087  -0.016471
      5       0.002221  -0.005874   0.003803
      6      -0.039530   0.003406  -0.010556
      7      -0.423602  -0.001055  -0.113524
      8       0.125141   0.000405   0.033078
      9       0.004303  -0.002976  -0.005660
     10       0.043305   0.000805  -0.057227
     11      -0.018008  -0.000385   0.023493
     12       0.003607  -0.002650   0.000991
     13       0.038537   0.000283   0.010697
     14      -0.011335  -0.000153  -0.003204
     15      -0.000000  -0.000016  -0.000000
     16       0.000007   0.000001  -0.000024
     17       0.000019  -0.000001  -0.000045
     18      -0.126507  -0.503519  -0.370992
     19       0.090124   0.343915   0.249758
     20      -0.028982  -0.113303  -0.083075
     21      -0.050245   0.004133   0.063759
     22      -0.508485  -0.006937   0.645324
     23       0.208672   0.002926  -0.264977
     24       0.038352   0.026776   0.016212
     25       0.016244   0.014335   0.009075
     26      -0.003909  -0.003576  -0.002193
     27      -0.422628  -0.303156  -0.178690
     28      -0.191938  -0.141475  -0.083392
     29       0.045914   0.034373   0.020649
     30       0.383976  -0.270381   0.159136
     31      -0.257433   0.185483  -0.109159
     32       0.086006  -0.062129   0.036947
     33       0.009878   0.043473   0.033999
     34      -0.009714  -0.031432  -0.022320
     35       0.003201   0.010414   0.007364
     36       0.147736  -0.558539   0.407196
     37       0.071982  -0.259360   0.185827
     38      -0.016559   0.061066  -0.044218


-----------
IR SPECTRUM
-----------

 Mode   freq       eps      Int      T**2         TX        TY        TZ
       cm**-1   L/(mol*cm) km/mol    a.u.
----------------------------------------------------------------------------
  6:     46.01   0.000020    0.10  0.000134  (-0.011469  0.001543 -0.000410)
  7:     60.01   0.000129    0.65  0.000669  (-0.001944 -0.025274 -0.005172)
  8:    123.62   0.000248    1.25  0.000625  ( 0.000452  0.017327  0.018025)
  9:    379.28   0.000003    0.02  0.000003  ( 0.001553  0.000110  0.000287)
 10:    388.34   0.000171    0.87  0.000138  ( 0.000358  0.009641  0.006668)
 11:    586.55   0.000025    0.13  0.000013  (-0.003631  0.000177 -0.000238)
 12:    592.28   0.000796    4.02  0.000419  (-0.000817 -0.017560 -0.010497)
 13:    649.20   0.007191   36.34  0.003457  ( 0.001349 -0.018180 -0.055894)
 14:    690.38   0.011470   57.96  0.005184  (-0.002000  0.018700  0.069504)
 15:    813.50   0.000094    0.47  0.000036  (-0.005964  0.000560 -0.000235)
 16:    846.56   0.001389    7.02  0.000512  (-0.000383 -0.015321 -0.016648)
 17:    925.46   0.000054    0.27  0.000018  ( 0.004199  0.000417  0.000603)
 18:    928.06   0.001108    5.60  0.000373  ( 0.000758  0.017296  0.008535)
 19:    949.16   0.001666    8.42  0.000548  (-0.000806 -0.019091 -0.013509)
 20:    973.63   0.001069    5.40  0.000343  ( 0.000392  0.013301  0.012871)
 21:    989.30   0.000004    0.02  0.000001  (-0.000039 -0.000792 -0.000728)
 22:   1015.97   0.000532    2.69  0.000163  (-0.000853 -0.012626 -0.001808)
 23:   1032.84   0.000686    3.47  0.000207  ( 0.014343 -0.001070  0.000693)
 24:   1147.88   0.000016    0.08  0.000004  (-0.002104  0.000142 -0.000116)
 25:   1155.34   0.000137    0.69  0.000037  (-0.006049  0.000616 -0.000210)
 26:   1165.90   0.001831    9.25  0.000490  ( 0.000903  0.018617  0.011941)
 27:   1334.41   0.000509    2.57  0.000119  ( 0.010858 -0.000861  0.000585)
 28:   1336.01   0.000027    0.14  0.000006  (-0.002488  0.000233 -0.000115)
 29:   1449.87   0.002230   11.27  0.000480  ( 0.001831  0.013555 -0.017115)
 30:   1460.76   0.002428   12.27  0.000519  (-0.022685  0.001707 -0.001070)
 31:   1537.68   0.000001    0.01  0.000000  (-0.000469 -0.000024 -0.000056)
 32:   1573.32   0.014425   72.90  0.002861  (-0.002177 -0.045764 -0.027606)
 33:   3098.42   0.000040    0.20  0.000004  (-0.000145 -0.001681  0.001110)
 34:   3110.12   0.000710    3.59  0.000071  ( 0.008395 -0.000737  0.000446)
 35:   3114.54   0.001579    7.98  0.000158  ( 0.001220  0.011932 -0.003782)
 36:   3124.73   0.001640    8.29  0.000164  ( 0.000928  0.012620 -0.001923)
 37:   3127.66   0.002582   13.05  0.000258  ( 0.015982 -0.001245  0.000775)
 38:   3137.52   0.001078    5.45  0.000107  ( 0.000137  0.006113  0.008358)

* The epsilon (eps) is given for a Dirac delta lineshape.
** The dipole moment derivative (T) already includes vibrational overlap.

The first frequency considered to be a vibration is 6
The total number of vibrations considered is 33


--------------------------
THERMOCHEMISTRY AT 298.15K
--------------------------

Temperature         ...   298.15 K
Pressure            ...     1.00 atm
Total Mass          ...   158.01 AMU
Quasi RRHO          ...     True
Cut-Off Frequency   ...     1.00 cm^-1

Throughout the following assumptions are being made:
  (1) The electronic state is orbitally nondegenerate
      but the spin degeneracy is treated
  (2) There are no thermally accessible electronically excited states
  (3) Hindered rotations indicated by low frequency modes are not
      treated as such but are treated as vibrations and this may
      cause some error
  (4) All equations used are the standard statistical mechanics
      equations for an ideal gas
  (5) All vibrations are strictly harmonic

freq.      46.01  E(vib)   ...       0.53 
freq.      60.01  E(vib)   ...       0.51 
freq.     123.62  E(vib)   ...       0.43 
freq.     379.28  E(vib)   ...       0.21 
freq.     388.34  E(vib)   ...       0.20 
freq.     586.55  E(vib)   ...       0.11 
freq.     592.28  E(vib)   ...       0.10 
freq.     649.20  E(vib)   ...       0.08 
freq.     690.38  E(vib)   ...       0.07 
freq.     813.50  E(vib)   ...       0.05 
freq.     846.56  E(vib)   ...       0.04 
freq.     925.46  E(vib)   ...       0.03 
freq.     928.06  E(vib)   ...       0.03 
freq.     949.16  E(vib)   ...       0.03 
freq.     973.63  E(vib)   ...       0.03 
freq.     989.30  E(vib)   ...       0.02 
freq.    1015.97  E(vib)   ...       0.02 
freq.    1032.84  E(vib)   ...       0.02 
freq.    1147.88  E(vib)   ...       0.01 
freq.    1155.34  E(vib)   ...       0.01 
freq.    1165.90  E(vib)   ...       0.01 
freq.    1334.41  E(vib)   ...       0.01 
freq.    1336.01  E(vib)   ...       0.01 
freq.    1449.87  E(vib)   ...       0.00 
freq.    1460.76  E(vib)   ...       0.00 
freq.    1537.68  E(vib)   ...       0.00 
freq.    1573.32  E(vib)   ...       0.00 
freq.    3098.42  E(vib)   ...       0.00 
freq.    3110.12  E(vib)   ...       0.00 
freq.    3114.54  E(vib)   ...       0.00 
freq.    3124.73  E(vib)   ...       0.00 
freq.    3127.66  E(vib)   ...       0.00 
freq.    3137.52  E(vib)   ...       0.00 

------------
INNER ENERGY
------------

The inner energy is: U= E(el) + E(ZPE) + E(vib) + E(rot) + E(trans)
    E(el)   - is the total energy from the electronic structure calculation
              = E(kin-el) + E(nuc-el) + E(el-el) + E(nuc-nuc)
    E(ZPE)  - the the zero temperature vibrational energy from the frequency calculation
    E(vib)  - the the finite temperature correction to E(ZPE) due to population
              of excited vibrational states
    E(rot)  - is the rotational thermal energy
    E(trans)- is the translational thermal energy

Summary of contributions to the inner energy U:
Electronic energy                ...  -2806.16696192 Eh
Zero point energy                ...      0.09765214 Eh      61.28 kcal/mol
Thermal vibrational correction   ...      0.00411017 Eh       2.58 kcal/mol
Thermal rotational correction    ...      0.00141627 Eh       0.89 kcal/mol
Thermal translational correction ...      0.00141627 Eh       0.89 kcal/mol
-----------------------------------------------------------------------
Total thermal energy                  -2806.06236707 Eh


Summary of corrections to the electronic energy:
(perhaps to be used in another calculation)
Total thermal correction                  0.00694271 Eh       4.36 kcal/mol
Non-thermal (ZPE) correction              0.09765214 Eh      61.28 kcal/mol
-----------------------------------------------------------------------
Total correction                          0.10459485 Eh      65.63 kcal/mol


--------
ENTHALPY
--------

The enthalpy is H = U + kB*T
                kB is Boltzmann's constant
Total thermal energy              ...  -2806.06236707 Eh 
Thermal Enthalpy correction       ...      0.00094421 Eh       0.59 kcal/mol
-----------------------------------------------------------------------
Total Enthalpy                    ...  -2806.06142286 Eh


Note: Only C1 symmetry has been detected, increase convergence thresholds 
      if your molecule has a higher symmetry. Symmetry factor of 1.0 is   
      used for the rotational entropy correction. 
 

Note: Rotational entropy computed according to Herzberg 
Infrared and Raman Spectra, Chapter V,1, Van Nostrand Reinhold, 1945 
Point Group:  C1, Symmetry Number:   1  
Rotational constants in cm-1:     0.120183     0.030184     0.028101 

Vibrational entropy computed according to the QRRHO of S. Grimme
Chem.Eur.J. 2012 18 9955 using a reference frequency of 100.0 cm-1


-------
ENTROPY
-------

The entropy contributions are T*S = T*(S(el)+S(vib)+S(rot)+S(trans))
     S(el)   - electronic entropy
     S(vib)  - vibrational entropy
     S(rot)  - rotational entropy
     S(trans)- translational entropy
The entropies will be listed as multiplied by the temperature to get
units of energy

Electronic entropy                ...      0.00065446 Eh      0.41 kcal/mol
Vibrational entropy               ...      0.00718700 Eh      4.51 kcal/mol
Rotational entropy                ...      0.01384985 Eh      8.69 kcal/mol
Translational entropy             ...      0.01951921 Eh     12.25 kcal/mol
-----------------------------------------------------------------------
Final entropy term                ...      0.04121051 Eh     25.86 kcal/mol

In case the symmetry of your molecule has not been determined correctly
or in case you have a reason to use a different symmetry number we print 
out the resulting rotational entropy values for sn=1,12:

 non-linear molecules -----------------------------------
|  sn= 1 | S(rot)=       0.01384985 Eh      8.69 kcal/mol|
|  sn= 2 | S(rot)=       0.01319540 Eh      8.28 kcal/mol|
|  sn= 3 | S(rot)=       0.01281256 Eh      8.04 kcal/mol|
|  sn= 4 | S(rot)=       0.01254094 Eh      7.87 kcal/mol|
|  sn= 5 | S(rot)=       0.01233025 Eh      7.74 kcal/mol|
|  sn= 6 | S(rot)=       0.01215811 Eh      7.63 kcal/mol|
|  sn= 7 | S(rot)=       0.01201256 Eh      7.54 kcal/mol|
|  sn= 8 | S(rot)=       0.01188648 Eh      7.46 kcal/mol|
|  sn= 9 | S(rot)=       0.01177527 Eh      7.39 kcal/mol|
|  sn=10 | S(rot)=       0.01167579 Eh      7.33 kcal/mol|
|  sn=11 | S(rot)=       0.01158580 Eh      7.27 kcal/mol|
|  sn=12 | S(rot)=       0.01150365 Eh      7.22 kcal/mol|
 linear molecules ---------------------------------------
|  Dinfh | S(rot)=       0.00869836 Eh      5.46 kcal/mol|
|  Cinfv | S(rot)=       0.00935282 Eh      5.87 kcal/mol|
 --------------------------------------------------------


-------------------
GIBBS FREE ENERGY
-------------------

The Gibbs free energy is G = H - T*S

Total enthalpy                    ...  -2806.06142286 Eh 
Total entropy correction          ...     -0.04121051 Eh    -25.86 kcal/mol
-----------------------------------------------------------------------
Final Gibbs free energy         ...  -2806.10263338 Eh

For completeness - the Gibbs free energy minus the electronic energy
G-E(el)                           ...      0.06432855 Eh     40.37 kcal/mol


Maximum memory used throughout the entire PROP-calculation: 57.2 MB

--------------------------------
SUGGESTED CITATIONS FOR THIS RUN
--------------------------------

Below you find a list of papers that are relevant to this ORCA run
We neither can nor want to force you to cite these papers, but we appreciate if you do
You receive ORCA, which is the product of decades of hard work by many enthusiastic individuals, for free
The only thing we kindly ask in return is that you cite our papers,
We deeply appreciate it, if you show your appreciation for ORCA by not just citing the generic ORCA reference.

Please note that relegating all ORCA citations to the supporting information does *not* help us.
SI sections are not indexed - citations you put there will not count into any citation statistics
But we need these citations in order to attract the funding resources that allow us to do what we are doing

Therefore, if you are a happy ORCA user, please consider citing a few of the papers listed below in the main body of your paper

In addition to the list printed below, the program has created the file job.bibtex that contains the list in bibtex format
You can import this file easily into all common literature databanks and citation aid programs


List of essential papers. We consider these as the minimum necessary citations

  1. Neese, F.
     Software update: the ORCA program system, version 6.0
     WIRES Comput. Molec. Sci. 2025 15(1), e70019
     doi.org/10.1002/wcms.7019

List of papers to cite with high priority. The work reported in these papers was absolutely
necessary for this run to complete.
Our perspective: the developers of density functionals and basis sets usually get cited in chemistry papers
Good! But without the algorithms to do something with them, the functionals or basis sets would not do anything.
Hence, in our opinion, the algorithm design and method developments papers are equally worthy of getting cited

  1. Neese, F.
     An improvement of the resolution of the identity approximation for the formation of the Coulomb matrix
     J. Comp. Chem. 2003 24(14), 1740-1747
     doi.org/10.1002/jcc.10318
  2. Bykov, D.; Petrenko, T.; Izsak, R.; Kossmann, S.; Becker, U.; Valeev, E.; Neese, F.
     Efficient implementation of the analytic second derivatives of Hartree-Fock and hybrid DFT energies: a detailed analysis of different approximations
     Molec. Phys. 2015 113 , 1961-1977
     doi.org/10.1080/00268976.2015.1025114
  3. Neese, F.
     The SHARK Integral Generation and Digestion System
     J. Comp. Chem. 2022 44(3), 381
     doi.org/10.1002/jcc.26942

List of suggested additional citations. These are papers that are important in the 'surrounding' of 
of this run, or papers that preceded the highly important papers. If you like your results we are grateful for a citation.

  1. Neese, F.
     The ORCA program system
     WIRES Comput. Molec. Sci. 2012 2(1), 73-78
     doi.org/10.1002/wcms.81
  2. Neese, F.
     Software update: the ORCA program system, version 4.0
     WIRES Comput. Molec. Sci. 2018 8(1), 1-6
     doi.org/10.1002/wcms.1327
  3. Neese, F.; Wennmohs, F.; Becker, U.; Riplinger, C.
     The ORCA quantum chemistry program package
     J. Chem. Phys. 2020 152(22), 224108
     doi.org/10.1063/5.0004608
  4. Neese, F.
     Software update: The ORCA program system—Version 5.0
     WIRES Comput. Molec. Sci. 2022 12(1), e1606
     doi.org/10.1002/wcms.1606

List of optional additional citations

  1. Neese, F.
     Approximate second-order SCF convergence for spin unrestricted wavefunctions
     Chem. Phys. Lett. 2000 325(1-3), 93-98
     doi.org/10.1016/s0009-2614(00)00662-x

Timings for individual modules:

Sum of individual times          ...      565.725 sec (=   9.429 min)
Startup calculation              ...        6.796 sec (=   0.113 min)   1.2 %
SCF iterations                   ...      173.814 sec (=   2.897 min)  30.7 %
Property integrals               ...      162.220 sec (=   2.704 min)  28.7 %
SCF Response                     ...       81.652 sec (=   1.361 min)  14.4 %
Property calculations            ...       61.133 sec (=   1.019 min)  10.8 %
SCF Gradient evaluation          ...       80.080 sec (=   1.335 min)  14.2 %
Geometry relaxation              ...        0.029 sec (=   0.000 min)   0.0 %
                             ****ORCA TERMINATED NORMALLY****
TOTAL RUN TIME: 0 days 0 hours 9 minutes 26 seconds 549 msec
