
                                 *****************
                                 * O   R   C   A *
                                 *****************

                                            #,                                       
                                            ###                                      
                                            ####                                     
                                            #####                                    
                                            ######                                   
                                           ########,                                 
                                     ,,################,,,,,                         
                               ,,#################################,,                 
                          ,,##########################################,,             
                       ,#########################################, ''#####,          
                    ,#############################################,,   '####,        
                  ,##################################################,,,,####,       
                ,###########''''           ''''###############################       
              ,#####''   ,,,,##########,,,,          '''####'''          '####       
            ,##' ,,,,###########################,,,                        '##       
           ' ,,###''''                  '''############,,,                           
         ,,##''                                '''############,,,,        ,,,,,,###''
      ,#''                                            '''#######################'''  
     '                                                          ''''####''''         
             ,#######,   #######,   ,#######,      ##                                
            ,#'     '#,  ##    ##  ,#'     '#,    #''#        ,####,    ,#,          
            ##       ##  ##   ,#'  ##            #'  '#       #'       ,# #          
            ##       ##  #######   ##           ,######,      #####,      #          
            '#,     ,#'  ##    ##  '#,     ,#' ,#      #,     #,   #      #          
             '#######'   ##     ##  '#######'  #'      '#     '####' #    #          



                #########################################################
                #                        -***-                          #
                #          Department of theory and spectroscopy        #
                #                                                       #
                #                      Frank Neese                      #
                #                                                       #
                #     Directorship, Architecture, Infrastructure        #
                #                    SHARK, DRIVERS                     #
                #        Core code/Algorithms in most modules           #
                #                                                       #
                #        Max Planck Institute fuer Kohlenforschung      #
                #                Kaiser Wilhelm Platz 1                 #
                #                 D-45470 Muelheim/Ruhr                 #
                #                      Germany                          #
                #                                                       #
                #                  All rights reserved                  #
                #                        -***-                          #
                #########################################################


                         Program Version 6.1.0  -  RELEASE   -
                                (GIT: $679e74b7b5$)
                          ($2025-06-10 18:02:51 +0200$)


 With contributions from (in alphabetic order):
[Max-Planck-Institut fuer Kohlenforschung]                               
  Daniel Aravena         : Magnetic Suceptibility                        
  Michael Atanasov       : Ab Initio Ligand Field Theory (pilot matlab implementation)
  Alexander A. Auer      : GIAO ZORA, VPT2 properties, NMR spectrum      
  Ute Becker             : All parallelization in ORCA, NUMFREQ, NUMCALC 
  Giovanni Bistoni       : ED, misc. LED, open-shell LED, HFLD           
  Dmytro Bykov           : pre 5.0 version of the SCF Hessian            
  Marcos Casanova-Páez   : Triplet and SCS-CIS(D). UHF-(DLPNO)-IP/EA/STEOM-CCSD. UHF-CVS-IP/STEOM-CCSD   
  Vijay G. Chilkuri      : MRCI spin determinant printing, contributions to CSF-ICE 
  Pauline Colinet        : FMM embedding                                 
  Dipayan Datta          : RHF DLPNO-CCSD density                        
  Achintya Kumar Dutta   : EOM-CC, STEOM-CC                              
  Nicolas Foglia         : Exact transition moments, OPA infrastructure, MCD improvements    
  Dmitry Ganyushin       : Spin-Orbit,Spin-Spin,Magnetic field MRCI      
  Miquel Garcia-Rates    : C-PCM and meta-GGA Hessian, CCSD/C-PCM, Gaussian charge scheme 
  Tiago L. C. Gouveia    : GS-ROHF, GS-ROCIS                             
  Yang Guo               : DLPNO-NEVPT2, F12-NEVPT2, CIM, IAO-localization        
  Andreas Hansen         : Spin unrestricted coupled pair/coupled cluster methods 
  Ingolf Harden          : AUTO-CI MPn and infrastructure                
  Benjamin Helmich-Paris : MC-RPA, TRAH-(SCF,CASSCF), AVAS, COSX integrals, SCF dyn. polar., MC-PDFT, srDFT 
  Lee Huntington         : MR-EOM, pCC                                   
  Robert Izsak           : Overlap fitted RIJCOSX, COSX-SCS-MP3, EOM     
  Riya Kayal             : Wick's Theorem for AUTO-CI, AUTO-CI UHF-CCSDT 
  Emily Kempfer          : AUTO-CI RHF CISDT and CCSDT, approximate NEVPT4
  Christian Kollmar      : KDIIS, OOCD, Brueckner-CCSD(T), CCSD density, CASPT2, CASPT2-K, improved NEVPT2 
  Axel Koslowski         : Symmetry handling                             
  Simone Kossmann        : meta-GGA functionals, TD-DFT gradient, OOMP2, (MP2 Hessian; deprecated post 5.0) 
  Lucas Lang             : DCDCAS, Hyperfine gauge corrections, ICE-SOC+SSC
  Marvin Lechner         : AUTO-CI (C++ implementation), FIC-MRCC        
  Spencer Leger          : CASSCF response                               
  Dagmar Lenk            : GEPOL surface, SMD, ORCA-2-JSON               
  Dimitrios Liakos       : Extrapolation schemes; Compound Job, Property file
  Dimitrios Manganas     : Further ROCIS development; embedding schemes. LFT, Crystal Embedding 
  Dimitrios Pantazis     : SARC Basis sets                               
  Anastasios Papadopoulos: AUTO-CI, single reference methods and gradients 
  Taras Petrenko         : pre 6.0 DFT Hessian and TD-DFT gradient,  ECA, NRVS 
  Petra Pikulova         : Analytic Raman intensities                    
  Peter Pinski           : DLPNO-MP2, DLPNO-MP2 Gradient                 
  Shashank Vittal Rao    : ES-AILFT, MagRelax                            
  Christoph Reimann      : Effective Core Potentials                     
  Marius Retegan         : Local ZFS, SOC                                
  Christoph Riplinger    : Optimizer, TS searches, QM/MM, DLPNO-CCSD(T), (RO)-DLPNO pert. Triples 
  Michael Roemelt        : Original ROCIS implementation, recursive CI coupling coefficients
  Masaaki Saitow         : Open-shell DLPNO-CCSD energy and density      
  Barbara Sandhoefer     : DKH picture change effects                    
  Yorick L. A. Schmerwitz: GMF and freeze-and-release deltaSCF, NEB S-IDPP initial path                    
  Kantharuban Sivalingam : CASSCF convergence/infrastructure, NEVPT2, NEVPT3, NEVPT4(SD), FIC-MRCI and CEPA variants
  Bernardo de Souza      : ESD, SOC TD-DFT                               
  Georgi L. Stoychev     : AutoAux, RI-MP2 NMR, DLPNO-MP2 response, X2C  
  Van Anh Tran           : RI-MP2 g-tensors                              
  Willem Van den Heuvel  : Paramagnetic NMR                              
  Zikuan Wang            : NOTCH, Electric field optimization            
  Frank Wennmohs         : Technical directorship and infrastructure     
  Hang Xu                : AUTO-CI-Response properties                   
                                                                         
[FACCTs GmbH]                                                            
  Markus Bursch, Nicolas Foglia, Miquel Garcia-Rates, Ingolf Harden, Hagen Neugebauer, Anastasios Papadopoulos, 
  Christoph Riplinger, Bernardo de Souza, Georgi L. Stoychev                                                    
                                                                 
  APM, various basis sets, CI-OPT, improved COSX, DLPNO-Multilevel,           
  DOCKER, DRACO, updates on ESD, Fragmentator, GOAT, IRC, LR-CPCM, L-BFGS, MBIS, meta-GGA TD-DFT gradient, ML-optimized integration grids, 
  MM, NACMEs, nearIR, NEB, NEB-TS, NL-DFT gradient (VV10), 2- and 3-layer-ONIOM, interface openCOSMO-RS, QMMM,   
  Crystal-QMMM, RESP, rigid body optimization, SF, symmetry and pop. for TD-DFT, various functionals, SOLVATOR                                   
                                                                         
[Other institutions]                                                     
  V. Asgeirsson          : NEB                                           
  Christoph Bannwarth    : sTDA-DFT, sTD-DFT, PBEh-3c, B97-3c, D3        
  Giovanni Bistoni       : ETS/NOCV, ADLD/ADEX, COVALED                  
  Martin Brehm           : Molecular dynamics                            
  Ronald Cardenas        : ETS/NOCV                                      
  Martina Colucci        : COVALED                                       
  Sebastian Ehlert       : rSCAN, r2SCAN, r2SCAN-3c, D4, dhf basis sets  
  Marvin Friede          : D4 for Fr, Ra, Ac-Lr                          
  Lars Goerigk           : TD-DFT with DH, B97 family of functionals     
  Stefan Grimme          : VdW corrections, initial TS optimization, DFT functionals, gCP, sTDA/sTD-DF 
  Waldemar Hujo          : DFT-NL                                        
  H. Jonsson             : NEB                                           
  Holger Kruse           : gCP                                           
  Marcel Mueller         : wB97X-3c, vDZP basis set                      
  Hagen Neugebauer       : wr2SCAN, Native XTB                           
  Gianluca Regni         : ADLD/ADEX                                     
  Tobias Risthaus        : pre 6.0 range-separated hybrid DFT and stability analysis
  Lukas Wittmann         : regularized MP2, r2SCAN double-hybrids, wr2SCAN        
                                                                         
We gratefully acknowledge several colleagues who have allowed us to      
interface, adapt or use parts of their codes:                            
  Ed Valeev, F. Pavosevic, A. Kumar             : LibInt (2-el integral package), F12 methods 
  Garnet Chan, S. Sharma, J. Yang, R. Olivares  : DMRG                   
  Ulf Ekstrom                                   : XCFun DFT Library      
  Mihaly Kallay                                 : mrcc  (arbitrary order and MRCC methods)
  Frank Weinhold                                : gennbo (NPA and NBO analysis)           
  Simon Mueller                                 : openCOSMO-RS                            
  Christopher J. Cramer and Donald G. Truhlar   : smd solvation model                     
  S Lehtola, MJT Oliveira, MAL Marques          : LibXC Library                           
  Liviu Ungur et al                             : ANISO software                          


 Your calculation uses the libint2 library for the computation of 2-el integrals
 For citations please refer to: http://libint.valeyev.net

 Your ORCA version has been built with support for libXC version: 7.0.0
 For citations please refer to: https://libxc.gitlab.io

 This ORCA versions uses:
   CBLAS   interface :  Fast vector & matrix operations
   LAPACKE interface :  Fast linear algebra routines
   SCALAPACK package :  Parallel linear algebra routines
   Shared memory     :  Shared parallel matrices


  ***********************************
  * Starting time: Wed Jul  9 17:10:55 2025
  * Host name:     MacBook-Air-3.local
  * Process ID:    74183
  * Working dir.:  /Users/blenl/Desktop/Folders/Projects/DFT2/MethylBenzene
  ***********************************

NOTE: MaxCore=16384 MB was set to SCF,MP2,MDCI,CIPSI,MRCI,RASCI and CIS
      => If you want to overwrite this, your respective input block should be placed after the MaxCore statement
Warning: RI is on but no J-basis has been assigned. Assigning Def2/J (nothing to worry about!)
================================================================================

----- Orbital basis set information -----
Your calculation utilizes the basis: def2-TZVP
   F. Weigend and R. Ahlrichs, Phys. Chem. Chem. Phys. 7, 3297 (2005).

----- AuxJ basis set information -----
Your calculation utilizes the auxiliary basis: def2/J
   H-Rn: F. Weigend, Phys. Chem. Chem. Phys. 8, 1057 (2006).
   Fr-Lr: K. Eichkorn, F. Weigend, O. Treutler, R. Ahlrichs; Theor. Chem. Acc. 97, 119 (1997).

================================================================================
                                        WARNINGS
                       Please study these warnings very carefully!
================================================================================


================================================================================
                                       INPUT FILE
================================================================================
NAME = job.inp
|  1> # avogadro generated ORCA file
|  2> # C7H14 | Single Point | revPBE/def2-TZVP
|  3> # 
|  4> ! SP revPBE def2-TZVP 
|  5> 
|  6> %maxcore 16384
|  7> 
|  8> %pal
|  9>    nprocs 1
| 10> end
| 11> %output
| 12>   Print[P_Basis] 2
| 13>   Print[P_MOs] 1
| 14> end
| 15> 
| 16> * xyz 0 1
| 17>    C     -3.150658    3.072574   -0.228097
| 18>    C     -3.263926    1.547273   -0.150035
| 19>    H     -3.479139    1.162614   -1.155751
| 20>    H     -0.741851    1.066066   -1.326226
| 21>    C     -1.852075    3.616550    0.353766
| 22>    C     -2.011561    0.864544    0.414066
| 23>    H     -3.230261    3.381006   -1.278060
| 24>    H     -4.002570    3.531226    0.287630
| 25>    C     -0.632541    2.919431   -0.240391
| 26>    H     -1.785685    4.695373    0.171853
| 27>    H     -1.855374    3.486002    1.443061
| 28>    C     -0.750815    1.393152   -0.278059
| 29>    H     -0.467272    3.285330   -1.261471
| 30>    H      0.258468    3.206434    0.330630
| 31>    C     -2.113546   -0.653653    0.277373
| 32>    H     -4.132233    1.279275    0.464881
| 33>    H      0.140895    0.950317    0.182865
| 34>    H     -1.942435    1.092350    1.486027
| 35>    H     -1.237930   -1.142491    0.716997
| 36>    H     -3.002248   -1.030999    0.793825
| 37>    H     -2.178154   -0.957188   -0.772849
| 38> *
| 39> 
| 40> 
| 41> 
| 42>                          ****END OF INPUT****
================================================================================

                       ****************************
                       * Single Point Calculation *
                       ****************************

---------------------------------
CARTESIAN COORDINATES (ANGSTROEM)
---------------------------------
  C     -3.150658    3.072574   -0.228097
  C     -3.263926    1.547273   -0.150035
  H     -3.479139    1.162614   -1.155751
  H     -0.741851    1.066066   -1.326226
  C     -1.852075    3.616550    0.353766
  C     -2.011561    0.864544    0.414066
  H     -3.230261    3.381006   -1.278060
  H     -4.002570    3.531226    0.287630
  C     -0.632541    2.919431   -0.240391
  H     -1.785685    4.695373    0.171853
  H     -1.855374    3.486002    1.443061
  C     -0.750815    1.393152   -0.278059
  H     -0.467272    3.285330   -1.261471
  H      0.258468    3.206434    0.330630
  C     -2.113546   -0.653653    0.277373
  H     -4.132233    1.279275    0.464881
  H      0.140895    0.950317    0.182865
  H     -1.942435    1.092350    1.486027
  H     -1.237930   -1.142491    0.716997
  H     -3.002248   -1.030999    0.793825
  H     -2.178154   -0.957188   -0.772849

----------------------------
CARTESIAN COORDINATES (A.U.)
----------------------------
  NO LB      ZA    FRAG     MASS         X           Y           Z
   0 C     6.0000    0    12.011   -5.953881    5.806323   -0.431041
   1 C     6.0000    0    12.011   -6.167926    2.923922   -0.283525
   2 H     1.0000    0     1.008   -6.574620    2.197022   -2.184053
   3 H     1.0000    0     1.008   -1.401895    2.014573   -2.506204
   4 C     6.0000    0    12.011   -3.499915    6.834289    0.668521
   5 C     6.0000    0    12.011   -3.801299    1.633751    0.782471
   6 H     1.0000    0     1.008   -6.104309    6.389175   -2.415183
   7 H     1.0000    0     1.008   -7.563761    6.673050    0.543542
   8 C     6.0000    0    12.011   -1.195329    5.516925   -0.454273
   9 H     1.0000    0     1.008   -3.374456    8.872969    0.324755
  10 H     1.0000    0     1.008   -3.506149    6.587589    2.726990
  11 C     6.0000    0    12.011   -1.418835    2.632676   -0.525455
  12 H     1.0000    0     1.008   -0.883016    6.208374   -2.383835
  13 H     1.0000    0     1.008    0.488434    6.059282    0.624800
  14 C     6.0000    0    12.011   -3.994023   -1.235225    0.524159
  15 H     1.0000    0     1.008   -7.808789    2.417479    0.878498
  16 H     1.0000    0     1.008    0.266253    1.795839    0.345565
  17 H     1.0000    0     1.008   -3.670670    2.064242    2.808184
  18 H     1.0000    0     1.008   -2.339349   -2.158995    1.354928
  19 H     1.0000    0     1.008   -5.673427   -1.948306    1.500112
  20 H     1.0000    0     1.008   -4.116115   -1.808823   -1.460473

--------------------------------
INTERNAL COORDINATES (ANGSTROEM)
--------------------------------
 C      0   0   0     0.000000000000     0.00000000     0.00000000
 C      1   0   0     1.531491578909     0.00000000     0.00000000
 H      2   1   0     1.098063684085   108.46357014     0.00000000
 H      3   2   1     2.744290224607    82.74571023    89.88389342
 C      1   2   3     1.523414666870   113.52875015   233.64311578
 C      2   1   3     1.533866656156   113.68221100   122.61108916
 H      1   2   3     1.097218864950   108.86729893   355.35563301
 H      1   2   3     1.096398673557   109.58421108   110.90832845
 C      5   1   2     1.525208385096   111.68981894    52.06354119
 H      5   1   2     1.096065252162   109.85860447   174.00297174
 H      5   1   2     1.097094918742   109.52254474   290.50847573
 C      4   3   2     1.098052669311    85.53097090     3.73645153
 H      9   5   1     1.097178329608   109.30241635    74.78582771
 H      9   5   1     1.096509344480   109.10085092   190.22753849
 C      6   2   1     1.527746067671   110.78804791   188.13499279
 H      2   1   3     1.097224526389   109.29051573   245.07777483
 H     12   4   3     1.097132852074   105.91214537   148.80774586
 H      6   2   1     1.098077576054   108.54656016    70.53804122
 H     15   6   2     1.094959008856   110.75345287   182.31056304
 H     15   6   2     1.094944709483   110.75979123   301.87419271
 H     15   6   2     1.095113664956   111.41890073    62.11179266

---------------------------
INTERNAL COORDINATES (A.U.)
---------------------------
 C      0   0   0     0.000000000000     0.00000000     0.00000000
 C      1   0   0     2.894099660545     0.00000000     0.00000000
 H      2   1   0     2.075039640525   108.46357014     0.00000000
 H      3   2   1     5.185956956504    82.74571023    89.88389342
 C      1   2   3     2.878836508783   113.52875015   233.64311578
 C      2   1   3     2.898587906088   113.68221100   122.61108916
 H      1   2   3     2.073443163727   108.86729893   355.35563301
 H      1   2   3     2.071893226617   109.58421108   110.90832845
 C      5   1   2     2.882226144991   111.68981894    52.06354119
 H      5   1   2     2.071263151494   109.85860447   174.00297174
 H      5   1   2     2.073208939339   109.52254474   290.50847573
 C      4   3   2     2.075018825619    85.53097090     3.73645153
 H      9   5   1     2.073366563033   109.30241635    74.78582771
 H      9   5   1     2.072102364352   109.10085092   190.22753849
 C      6   2   1     2.887021670073   110.78804791   188.13499279
 H      2   1   3     2.073453862296   109.29051573   245.07777483
 H     12   4   3     2.073280622949   105.91214537   148.80774586
 H      6   2   1     2.075065892542   108.54656016    70.53804122
 H     15   6   2     2.069172654609   110.75345287   182.31056304
 H     15   6   2     2.069145632708   110.75979123   301.87419271
 H     15   6   2     2.069464912281   111.41890073    62.11179266

---------------------
BASIS SET INFORMATION
---------------------
There are 2 groups of distinct atoms

 Group   1 Type C   : 11s6p2d1f contracted to 5s3p2d1f pattern {62111/411/11/1}
 Group   2 Type H   : 5s1p contracted to 3s1p pattern {311/1}

Atom   0C    basis set group =>   1
Atom   1C    basis set group =>   1
Atom   2H    basis set group =>   2
Atom   3H    basis set group =>   2
Atom   4C    basis set group =>   1
Atom   5C    basis set group =>   1
Atom   6H    basis set group =>   2
Atom   7H    basis set group =>   2
Atom   8C    basis set group =>   1
Atom   9H    basis set group =>   2
Atom  10H    basis set group =>   2
Atom  11C    basis set group =>   1
Atom  12H    basis set group =>   2
Atom  13H    basis set group =>   2
Atom  14C    basis set group =>   1
Atom  15H    basis set group =>   2
Atom  16H    basis set group =>   2
Atom  17H    basis set group =>   2
Atom  18H    basis set group =>   2
Atom  19H    basis set group =>   2
Atom  20H    basis set group =>   2

-------------------------
BASIS SET IN INPUT FORMAT
-------------------------

 # Basis set for element : H 
 NewGTO H 
 S 3 
   1      34.0613410000      0.0254393072
   2       5.1235746000      0.1900859489
   3       1.1646626000      0.8524411301
 S 1 
   1       0.3272304100      1.0000000000
 S 1 
   1       0.1030724100      1.0000000000
 P 1 
   1       0.8000000000      1.0000000000
  end;

 # Basis set for element : C 
 NewGTO C 
 S 6 
   1   13575.3496820000      0.0006064549
   2    2035.2333680000      0.0046979088
   3     463.2256235900      0.0243324776
   4     131.2001959800      0.0973999683
   5      42.8530158910      0.3019558425
   6      15.5841857660      0.6623360915
 S 2 
   1       6.2067138508      0.6559530854
   2       2.5764896527      0.3758563329
 S 1 
   1       0.5769633942      1.0000000000
 S 1 
   1       0.2297283136      1.0000000000
 S 1 
   1       0.0951644400      1.0000000000
 P 4 
   1      34.6972322440      0.0113272200
   2       7.9582622826      0.0761696592
   3       2.3780826883      0.3019225220
   4       0.8143320818      0.7278502735
 P 1 
   1       0.2888754725      1.0000000000
 P 1 
   1       0.1005682367      1.0000000000
 D 1 
   1       1.0970000000      1.0000000000
 D 1 
   1       0.3180000000      1.0000000000
 F 1 
   1       0.7610000000      1.0000000000
  end;

---------------------------------
AUXILIARY/J BASIS SET INFORMATION
---------------------------------
There are 2 groups of distinct atoms

 Group   1 Type C   : 12s5p4d2f1g contracted to 6s4p3d1f1g pattern {711111/2111/211/2/1}
 Group   2 Type H   : 5s2p1d contracted to 3s1p1d pattern {311/2/1}

Atom   0C    basis set group =>   1
Atom   1C    basis set group =>   1
Atom   2H    basis set group =>   2
Atom   3H    basis set group =>   2
Atom   4C    basis set group =>   1
Atom   5C    basis set group =>   1
Atom   6H    basis set group =>   2
Atom   7H    basis set group =>   2
Atom   8C    basis set group =>   1
Atom   9H    basis set group =>   2
Atom  10H    basis set group =>   2
Atom  11C    basis set group =>   1
Atom  12H    basis set group =>   2
Atom  13H    basis set group =>   2
Atom  14C    basis set group =>   1
Atom  15H    basis set group =>   2
Atom  16H    basis set group =>   2
Atom  17H    basis set group =>   2
Atom  18H    basis set group =>   2
Atom  19H    basis set group =>   2
Atom  20H    basis set group =>   2

-------------------------------------
AUXILIARY/J BASIS SET IN INPUT FORMAT
-------------------------------------

 # Auxiliary/J basis set for element : H 
 NewAuxJGTO H 
 S 3 
   1      15.6752927000      0.1007184237
   2       3.6063578000      0.3404257499
   3       1.2080016000      0.6491996172
 S 1 
   1       0.4726794000      1.0000000000
 S 1 
   1       0.2018100000      1.0000000000
 P 2 
   1       2.0281365000      0.5596620919
   2       0.5358730000      0.5596620919
 D 1 
   1       2.2165124000      1.0000000000
  end;

 # Auxiliary/J basis set for element : C 
 NewAuxJGTO C 
 S 7 
   1    1861.0916331000      0.0134602335
   2     642.9939764000      0.0299160374
   3     235.1105725000      0.1008649584
   4      90.7028894000      0.2370970548
   5      36.7794552000      0.3924037254
   6      15.6046273000      0.3195862154
   7       6.8907294000      0.0530104441
 S 1 
   1       3.1478850000     -1.0000000000
 S 1 
   1       1.4777287000      1.0000000000
 S 1 
   1       0.7076466000      1.0000000000
 S 1 
   1       0.3430122000      1.0000000000
 S 1 
   1       0.1669453000      1.0000000000
 P 2 
   1      13.5472892000     -0.6769313712
   2       5.4669419000     -0.3779500978
 P 1 
   1       2.1751721000      1.0000000000
 P 1 
   1       0.8582194000      1.0000000000
 P 1 
   1       0.3376720000      1.0000000000
 D 2 
   1       5.9287253000     -0.3533329857
   2       1.9809209000     -0.7456525731
 D 1 
   1       0.8055417000     -1.0000000000
 D 1 
   1       0.3531244000     -1.0000000000
 F 2 
   1       1.6755626000      0.6311076882
   2       0.5997536000      0.4968166032
 G 1 
   1       1.0024600000     -1.0000000000
  end;

------------------------------------------------------------------------------
                             ORCA STARTUP CALCULATIONS
                           -- RI-GTO INTEGRALS CHOSEN --
------------------------------------------------------------------------------
------------------------------------------------------------------------------
                   ___                                                        
                  /   \      - P O W E R E D   B Y -                         
                 /     \                                                     
                 |  |  |   _    _      __       _____    __    __             
                 |  |  |  | |  | |    /  \     |  _  \  |  |  /  |          
                  \  \/   | |  | |   /    \    | | | |  |  | /  /          
                 / \  \   | |__| |  /  /\  \   | |_| |  |  |/  /          
                |  |  |   |  __  | /  /__\  \  |    /   |      \           
                |  |  |   | |  | | |   __   |  |    \   |  |\   \          
                \     /   | |  | | |  |  |  |  | |\  \  |  | \   \       
                 \___/    |_|  |_| |__|  |__|  |_| \__\ |__|  \__/        
                                                                              
                      - O R C A' S   B I G   F R I E N D -                    
                                      &                                       
                       - I N T E G R A L  F E E D E R -                       
                                                                              
 v1 FN, 2020, v2 2021, v3 2022-2024                                           
------------------------------------------------------------------------------


----------------------
SHARK INTEGRAL PACKAGE
----------------------

Number of atoms                             ...     21
Number of basis functions                   ...    301
Number of shells                            ...    133
Maximum angular momentum                    ...      3
Integral batch strategy                     ... SHARK/LIBINT Hybrid
RI-J (if used) integral strategy            ... SPLIT-RIJ (Revised 2003 algorithm where possible)
Printlevel                                  ...      1
Contraction scheme used                     ... SEGMENTED contraction
Prescreening option                         ... SCHWARTZ
   Thresh                                   ... 1.000e-10
   Tcut                                     ... 1.000e-11
   Tpresel                                  ... 1.000e-11 
Coulomb Range Separation                    ... NOT USED
Exchange Range Separation                   ... NOT USED
Multipole approximations                    ... NOT USED
Finite Nucleus Model                        ... NOT USED
CABS basis                                  ... NOT available
Auxiliary Coulomb fitting basis             ... AVAILABLE
   # of basis functions in Aux-J            ...    497
   # of shells in Aux-J                     ...    175
   Maximum angular momentum in Aux-J        ...      4
Auxiliary J/K fitting basis                 ... NOT available
Auxiliary Correlation fitting basis         ... NOT available
Auxiliary 'external' fitting basis          ... NOT available

Checking pre-screening integrals            ... done (  0.0 sec) Dimension = 133
   => SHARK Basis and OBASIS are compatible. Storing Pre-screening
Shell pair information
Shell pair cut-off parameter TPreSel        ...   1.0e-11
Total number of shell pairs                 ...      8911
Shell pairs after pre-screening             ...      8392
Total number of primitive shell pairs       ...     25396
Primitive shell pairs kept                  ...     18475
          la=0 lb=0:   2751 shell pairs
          la=1 lb=0:   2534 shell pairs
          la=1 lb=1:    600 shell pairs
          la=2 lb=0:   1042 shell pairs
          la=2 lb=1:    477 shell pairs
          la=2 lb=2:    104 shell pairs
          la=3 lb=0:    516 shell pairs
          la=3 lb=1:    242 shell pairs
          la=3 lb=2:     98 shell pairs
          la=3 lb=3:     28 shell pairs

Checking whether 4 symmetric matrices of dimension 301 fit in memory
:Max Core in MB      =  16384.00
 MB in use           =     11.45
 MB left             =  16372.55
 MB needed           =      1.39
 Data fit in memory  = YES
Calculating RI/J V-Matrix + Cholesky decomp.... done (  0.0 sec)
Calculating Nuclear repulsion               ... done (  0.0 sec) ENN=    328.960641152238 Eh

Diagonalization of the overlap matrix:
Smallest eigenvalue                        ... 3.890e-05
Time for diagonalization                   ...    0.005 sec
Threshold for overlap eigenvalues          ... 1.000e-07
Number of eigenvalues below threshold      ... 0
Time for construction of square roots      ...    0.001 sec
Total time needed                          ...    0.007 sec

-------------------
DFT GRID GENERATION
-------------------

General Integration Accuracy     IntAcc      ... 4.388
Radial Grid Type                 RadialGrid  ... OptM3 with GC (2021)
Angular Grid (max. ang.)         AngularGrid ... 4 (Lebedev-302)
Angular grid pruning method      GridPruning ... 4 (adaptive)
Weight generation scheme         WeightScheme... mBecke (2022)
Basis function cutoff            BFCut       ... 1.0000e-10
Integration weight cutoff        WCut        ... 1.0000e-14
Partially contracted basis set               ... off
Rotationally invariant grid construction     ... off
Angular grids for H and He will be reduced by one unit

Total number of grid points                  ...    86357
Total number of batches                      ...     1358
Average number of points per batch           ...       63
Average number of grid points per atom       ...     4112
Grids setup in   0.4 sec
Initializing property integral containers    ... done (  0.0 sec)

SHARK setup successfully completed in   0.5 seconds

Maximum memory used throughout the entire STARTUP-calculation: 46.3 MB
-------------------------------------------------------------------------------
                                 ORCA GUESS
                   Start orbitals & Density for SCF / CASSCF
-------------------------------------------------------------------------------

------------
SCF SETTINGS
------------
Hamiltonian:
 Density Functional     Method          .... DFT(GTOs)
 Exchange Functional    Exchange        .... PBE
   PBE kappa parameter   XKappa         ....  1.245000
   PBE mue parameter    XMuePBE         ....  0.219520
 Correlation Functional Correlation     .... PBE
   PBE beta parameter  CBetaPBE         ....  0.066725
 LDA part of GGA corr.  LDAOpt          .... PW91-LDA
 Gradients option       PostSCFGGA      .... off
   NL short-range parameter             ....  3.700000
 RI-approximation to the Coulomb term is turned on
   Number of AuxJ basis functions       .... 497


General Settings:
 Integral files         IntName         .... job
 Hartree-Fock type      HFTyp           .... RHF
 Total Charge           Charge          ....    0
 Multiplicity           Mult            ....    1
 Number of Electrons    NEL             ....   56
 Basis Dimension        Dim             ....  301
 Nuclear Repulsion      ENuc            ....    328.9606411522 Eh

Convergence Acceleration:
 AO-DIIS                CNVDIIS         .... on
   Start iteration      DIISMaxIt       ....    12
   Startup error        DIISStart       ....  0.200000
   # of expansion vecs  DIISMaxEq       ....     5
   Bias factor          DIISBfac        ....   1.050
   Max. coefficient     DIISMaxC        ....  10.000
 MO-DIIS                CNVKDIIS        .... off
 Trust-Rad. Augm. Hess. CNVTRAH         .... auto
   Auto Start mean grad. ratio tolernc. ....  1.125000
   Auto Start start iteration           ....    50
   Auto Start num. interpolation iter.  ....    10
   Max. Number of Micro iterations      ....    24
   Max. Number of Macro iterations      .... Maxiter - #DIIS iter
   Number of Davidson start vectors     ....     2
   Converg. threshold    (grad. norm)   ....   5.000e-05
   Grad. Scal. Fac. for Micro threshold ....   0.100
   Minimum threshold for Micro iter.    ....   1.000e-02
   NR start threshold (gradient norm)   ....   1.000e-04
   Initial trust radius                 ....   0.400
   Minimum AH scaling param. (alpha)    ....   1.000
   Maximum AH scaling param. (alpha)    .... 1000.000
   Quad. conv. algorithm                .... NR
   White noise on init. David. guess    .... on
   Maximum white noise                  ....   0.010
   Pseudo random numbers                .... off
   Inactive MOs                         .... canonical
   Orbital update algorithm             .... Taylor
   Preconditioner                       .... Diag
   Full preconditioner red. dimension   ....   250
 SOSCF                 CNVSOSCF           .... on
   Start iteration     SOSCFMaxIt         ....   150
   Startup grad/error  SOSCFStart         ....  0.003300
   Hessian update      SOSCFHessUp        .... L-BFGS
   Autom. constraints  SOSCFAutoConstrain .... off
 Level Shifting         CNVShift        .... on
   Level shift para.    LevelShift      ....    0.2500
   Turn off err/grad.   ShiftErr        ....    0.0010
 Zerner damping         CNVZerner       .... off
 Static damping         CNVDamp         .... on
   Fraction old density DampFac         ....    0.7000
   Max. Damping (<1)    DampMax         ....    0.9800
   Min. Damping (>=0)   DampMin         ....    0.0000
   Turn off err/grad.   DampErr         ....    0.1000

SCF Procedure:
 Maximum # iterations   MaxIter         ....   125
 SCF integral mode      SCFMode         .... Direct
   Integral package                     .... SHARK and LIBINT hybrid scheme
 Reset frequency        DirectResetFreq ....    20
 Integral Threshold     Thresh          ....  1.000e-10 Eh
 Primitive CutOff       TCut            ....  1.000e-11 Eh

Convergence Tolerance:
 Convergence Check Mode ConvCheckMode   .... Total+1el-Energy
 Convergence forced     ConvForced      .... 0
 Energy Change          TolE            ....  1.000e-06 Eh
 1-El. energy change                    ....  1.000e-03 Eh
 Orbital Gradient       TolG            ....  5.000e-05
 Orbital Rotation angle TolX            ....  5.000e-05
 DIIS Error             TolErr          ....  1.000e-06

------------------------------
INITIAL GUESS: MODEL POTENTIAL
------------------------------
Loading Hartree-Fock densities                     ... done
Calculating cut-offs                               ... done
Initializing the effective Hamiltonian             ... done
Setting up the integral package (SHARK)            ... done
Starting the Coulomb interaction                   ... done (   0.1 sec)
Making the grid                                    ... done (   0.1 sec)
Mapping shells                                     ... done
Starting the XC term evaluation                    ... done (   0.2 sec)
  promolecular density results
     # of electrons  =     55.995701262
     EX              =    -40.242408440
     EC              =     -1.835707851
     EX+EC           =    -42.078116292
Transforming the Hamiltonian                       ... done (   0.0 sec)
Diagonalizing the Hamiltonian                      ... done (   0.0 sec)
Back transforming the eigenvectors                 ... done (   0.0 sec)
Now organizing SCF variables                       ... done
                      ------------------
                      INITIAL GUESS DONE (   0.5 sec)
                      ------------------
             **** ENERGY FILE WAS UPDATED (job.en.tmp) ****
Finished Guess after   0.5 sec
Maximum memory used throughout the entire GUESS-calculation: 26.1 MB

-------------------------------------------------------------------------------------------
                                      ORCA LEAN-SCF
                              memory conserving SCF solver
-------------------------------------------------------------------------------------------

----------------------------------------D-I-I-S--------------------------------------------
Iteration    Energy (Eh)           Delta-E    RMSDP     MaxDP     DIISErr   Damp  Time(sec)
-------------------------------------------------------------------------------------------
               ***  Starting incremental Fock matrix formation  ***
    1    -274.9540045724513675     0.00e+00  1.45e-03  3.19e-02  1.73e-01  0.700   1.1
    2    -275.0673594910773545    -1.13e-01  1.18e-03  2.19e-02  8.29e-02  0.700   1.0
                               ***Turning on AO-DIIS***
    3    -275.1047362472713758    -3.74e-02  5.59e-04  1.24e-02  2.28e-02  0.700   1.0
    4    -275.1269833859187202    -2.22e-02  8.46e-04  1.65e-02  1.02e-02  0.000   1.0
    5    -275.1789154511534434    -5.19e-02  3.07e-04  9.28e-03  9.60e-03  0.000   1.0
                              *** Initializing SOSCF ***
---------------------------------------S-O-S-C-F--------------------------------------
Iteration    Energy (Eh)           Delta-E    RMSDP     MaxDP     MaxGrad    Time(sec)
--------------------------------------------------------------------------------------
    6    -275.1797502756087397    -8.35e-04  1.47e-04  4.49e-03  2.97e-03     0.9
               *** Restarting incremental Fock matrix formation ***
    7    -275.1798183014814185    -6.80e-05  1.27e-04  3.57e-03  3.82e-04     1.1
    8    -275.1798180389746449     2.63e-07  1.59e-05  3.09e-04  3.38e-04     0.9
                 **** Energy Check signals convergence ****

               *****************************************************
               *                     SUCCESS                       *
               *           SCF CONVERGED AFTER   8 CYCLES          *
               *****************************************************

             **** ENERGY FILE WAS UPDATED (job.en.tmp) ****

----------------
TOTAL SCF ENERGY
----------------

Total Energy       :       -275.17982406099190 Eh           -7488.02370 eV

Components:
Nuclear Repulsion  :        328.96064115223840 Eh            8951.47413 eV
Electronic Energy  :       -604.14046521323030 Eh          -16439.49783 eV
One Electron Energy:      -1021.04081054888854 Eh          -27783.93296 eV
Two Electron Energy:        416.90034533565824 Eh           11344.43514 eV

Virial components:
Potential Energy   :       -549.19109884189515 Eh          -14944.24955 eV
Kinetic Energy     :        274.01127478090325 Eh            7456.22585 eV
Virial Ratio       :          2.00426460291104

DFT components:
N(Alpha)           :       27.999995142024 electrons
N(Beta)            :       27.999995142024 electrons
N(Total)           :       55.999990284049 electrons
E(X)               :      -41.440732283226 Eh       
E(C)               :       -1.828081827177 Eh       
E(XC)              :      -43.268814110403 Eh       

---------------
SCF CONVERGENCE
---------------

  Last Energy change         ...   -2.6251e-07  Tolerance :   1.0000e-06
  Last MAX-Density change    ...    3.0915e-04  Tolerance :   1.0000e-05
  Last RMS-Density change    ...    1.5872e-05  Tolerance :   1.0000e-06
  Last DIIS Error            ...    2.9690e-03  Tolerance :   1.0000e-06
  Last Orbital Gradient      ...    3.3769e-04  Tolerance :   5.0000e-05
  Last Orbital Rotation      ...    2.8274e-04  Tolerance :   5.0000e-05


----------------
ORBITAL ENERGIES
----------------

  NO   OCC          E(Eh)            E(eV) 
   0   2.0000      -9.889473      -269.1062 
   1   2.0000      -9.880181      -268.8534 
   2   2.0000      -9.878823      -268.8164 
   3   2.0000      -9.878759      -268.8147 
   4   2.0000      -9.878614      -268.8107 
   5   2.0000      -9.878551      -268.8090 
   6   2.0000      -9.873828      -268.6805 
   7   2.0000      -0.756646       -20.5894 
   8   2.0000      -0.688965       -18.7477 
   9   2.0000      -0.666737       -18.1428 
  10   2.0000      -0.604681       -16.4542 
  11   2.0000      -0.543819       -14.7981 
  12   2.0000      -0.532305       -14.4847 
  13   2.0000      -0.461647       -12.5621 
  14   2.0000      -0.433236       -11.7889 
  15   2.0000      -0.412727       -11.2309 
  16   2.0000      -0.390704       -10.6316 
  17   2.0000      -0.369980       -10.0677 
  18   2.0000      -0.359373        -9.7790 
  19   2.0000      -0.331216        -9.0128 
  20   2.0000      -0.323581        -8.8051 
  21   2.0000      -0.314857        -8.5677 
  22   2.0000      -0.310210        -8.4412 
  23   2.0000      -0.298988        -8.1359 
  24   2.0000      -0.290403        -7.9023 
  25   2.0000      -0.259735        -7.0678 
  26   2.0000      -0.249763        -6.7964 
  27   2.0000      -0.248216        -6.7543 
  28   0.0000       0.010754         0.2926 
  29   0.0000       0.034234         0.9316 
  30   0.0000       0.040834         1.1112 
  31   0.0000       0.050174         1.3653 
  32   0.0000       0.066530         1.8104 
  33   0.0000       0.079354         2.1593 
  34   0.0000       0.080737         2.1970 
  35   0.0000       0.086820         2.3625 
  36   0.0000       0.087626         2.3844 
  37   0.0000       0.109201         2.9715 
  38   0.0000       0.110857         3.0166 
*Only the first 10 virtual orbitals were printed.
------------------
MOLECULAR ORBITALS (RHF, ROHF)
------------------
                      0         1         2         3         4         5   
                  -9.88947  -9.88018  -9.87882  -9.87876  -9.87861  -9.87855
                   2.00000   2.00000   2.00000   2.00000   2.00000   2.00000
                  --------  --------  --------  --------  --------  --------
  0C   1s         0.000080 -0.018820 -0.452309  0.044001  0.110122 -0.006035
  0C   2s         0.000099 -0.024480 -0.586277  0.057090  0.142614 -0.007816
  0C   3s        -0.000997 -0.001176 -0.040244  0.003200  0.010661 -0.000201
  0C   4s         0.006242 -0.005171  0.029289  0.000331 -0.015209 -0.001174
  0C   5s        -0.024252  0.032879 -0.065159 -0.004550  0.038974 -0.001020
  0C   1pz        0.000001 -0.000112 -0.000184  0.000004  0.000145  0.000006
  0C   1px       -0.000112 -0.000214 -0.000446 -0.000025  0.000271  0.000047
  0C   1py        0.000037 -0.000180  0.000460  0.000027  0.000126 -0.000016
  0C   2pz        0.000523 -0.000912  0.001854  0.000537 -0.001559 -0.000126
  0C   2px        0.002092 -0.000859  0.003408 -0.000902 -0.002176 -0.000319
  0C   2py       -0.001799  0.000835 -0.003432 -0.000572  0.002540  0.000039
  0C   3pz       -0.003579  0.004597 -0.000077  0.002555 -0.000726 -0.003171
  0C   3px       -0.004340  0.009200 -0.007217 -0.003972  0.001858  0.002051
  0C   3py        0.003257  0.000647  0.005748  0.001362 -0.009894 -0.000671
  0C   1dz2      -0.000033 -0.000117  0.000004  0.000039 -0.000081 -0.000035
  0C   1dxz       0.000055  0.000051 -0.000008  0.000016  0.000025 -0.000067
  0C   1dyz      -0.000046  0.000076 -0.000003 -0.000040 -0.000067 -0.000059
  0C   1dx2y2     0.000019  0.000054 -0.000030 -0.000042 -0.000023  0.000038
  0C   1dxy      -0.000036  0.000008 -0.000001  0.000096 -0.000004  0.000002
  0C   2dz2      -0.000601  0.000784 -0.002219 -0.000434  0.000786  0.000422
  0C   2dxz       0.000505  0.000740  0.001207 -0.000396 -0.000836  0.000257
  0C   2dyz       0.000111 -0.000347  0.000157  0.000605  0.000112 -0.000014
  0C   2dx2y2    -0.000326  0.000942 -0.001310 -0.000395 -0.000817  0.000074
  0C   2dxy      -0.000182  0.000961  0.001275 -0.000360 -0.000615  0.000009
  0C   1f0       -0.000053 -0.000322  0.001004 -0.000059 -0.000191  0.000024
  0C   1f+1      -0.000028 -0.000094  0.000182 -0.000021  0.000018  0.000010
  0C   1f-1       0.000049 -0.000242 -0.000352  0.000030  0.000667 -0.000091
  0C   1f+2       0.000014  0.000453 -0.000517  0.000053 -0.000082 -0.000054
  0C   1f-2       0.000009  0.000577  0.000352  0.000018 -0.000049 -0.000003
  0C   1f+3       0.000052 -0.000235 -0.000035  0.000091 -0.000115 -0.000029
  0C   1f-3      -0.000064 -0.000407  0.000317 -0.000161 -0.000808  0.000125
  1C   1s        -0.002094  0.000150 -0.109443  0.014391 -0.453729  0.031175
  1C   2s        -0.002820  0.000172 -0.141981  0.018655 -0.588079  0.040465
  1C   3s         0.000868 -0.000523 -0.008798  0.001712 -0.040787  0.002157
  1C   4s        -0.008014  0.003128 -0.001245 -0.002749  0.033154  0.000819
  1C   5s         0.044054 -0.017328  0.023213  0.003057 -0.067174 -0.006928
  1C   1pz       -0.000063  0.000016  0.000096  0.000015 -0.000152 -0.000015
  1C   1px       -0.000112 -0.000040  0.000038  0.000076 -0.000500 -0.000014
  1C   1py        0.000236 -0.000074 -0.000329  0.000068 -0.000300 -0.000029
  1C   2pz       -0.001145  0.000146 -0.000791  0.000076  0.001520  0.000814
  1C   2px       -0.002224  0.001118 -0.001290 -0.001170  0.004325 -0.000725
  1C   2py       -0.001015  0.001505 -0.000076 -0.000686  0.003979  0.000193
  1C   3pz        0.005865 -0.001574 -0.000093  0.000057  0.002063  0.005213
  1C   3px        0.009844 -0.004891  0.002537  0.000565 -0.006478 -0.005704
  1C   3py       -0.000359 -0.000824  0.008778  0.001002 -0.006304  0.001425
  1C   1dz2      -0.000111 -0.000023 -0.000061 -0.000025  0.000031  0.000028
  1C   1dxz       0.000024  0.000051  0.000039 -0.000031 -0.000024  0.000027
  1C   1dyz      -0.000088  0.000021  0.000038  0.000069 -0.000036  0.000012
  1C   1dx2y2     0.000008  0.000039 -0.000002  0.000003 -0.000000 -0.000072
  1C   1dxy       0.000029  0.000018  0.000035 -0.000034  0.000008 -0.000070
  1C   2dz2       0.000992 -0.000599 -0.000256  0.000643 -0.002378 -0.000340
  1C   2dxz      -0.000021  0.000010 -0.000639 -0.000295  0.001176 -0.000623
  1C   2dyz       0.000642 -0.000228 -0.000098 -0.000164 -0.000580 -0.000737
  1C   2dx2y2     0.000904 -0.000404 -0.001738  0.000353 -0.001299 -0.000140
  1C   2dxy      -0.000997  0.000537  0.000520  0.000107 -0.001052  0.000265
  1C   1f0       -0.000288 -0.000012  0.000374 -0.000016  0.000727  0.000009
  1C   1f+1      -0.000073 -0.000049  0.000139  0.000002  0.000498 -0.000037
  1C   1f-1       0.000244 -0.000056 -0.000433  0.000083  0.000721 -0.000021
  1C   1f+2       0.000258  0.000015 -0.000187 -0.000046 -0.000637  0.000064
  1C   1f-2      -0.000501 -0.000011 -0.000001  0.000020 -0.000081 -0.000062
  1C   1f+3      -0.000111  0.000104  0.000177 -0.000015 -0.000203  0.000156
  1C   1f-3       0.000539  0.000036  0.000581 -0.000085 -0.000482  0.000091
  2H   1s        -0.000065  0.000024  0.000119 -0.000031  0.000367 -0.000050
  2H   2s        -0.000708  0.000386  0.000705  0.000027  0.005057  0.001764
  2H   3s        -0.000842  0.000489  0.000276  0.000027  0.008980  0.002649
  2H   1pz       -0.000049  0.000002  0.000356 -0.000008  0.002120  0.000034
  2H   1px        0.000173 -0.000019  0.000089  0.000010  0.000638  0.000029
  2H   1py       -0.000214 -0.000023  0.000442  0.000000  0.000791  0.000020
  3H   1s        -0.000064  0.000001  0.000025 -0.000107 -0.000012 -0.000361
  3H   2s        -0.000925  0.000344 -0.001022 -0.000839 -0.002238 -0.005059
  3H   3s        -0.000862  0.000257 -0.000797 -0.000379 -0.003429 -0.008662
  3H   1pz       -0.000075 -0.000009 -0.000165 -0.000410 -0.000287 -0.002233
  3H   1px       -0.000226  0.000021  0.000051  0.000019 -0.000013  0.000193
  3H   1py       -0.000185 -0.000060 -0.000141 -0.000422 -0.000081 -0.000703
  4C   1s         0.000377 -0.467301  0.016490 -0.019058 -0.004424  0.004506
  4C   2s         0.000370 -0.605645  0.021303 -0.024632 -0.005742  0.005841
  4C   3s         0.001786 -0.042148  0.001546 -0.001527 -0.000285  0.000640
  4C   4s        -0.007988  0.034425 -0.004748  0.004007  0.001140 -0.003649
  4C   5s         0.029079 -0.081005  0.020040 -0.013971 -0.001489  0.011202
  4C   1pz       -0.000122  0.000411  0.000027 -0.000045 -0.000066  0.000084
  4C   1px       -0.000013  0.000038  0.000295  0.000239 -0.000023 -0.000024
  4C   1py       -0.000218  0.000592  0.000015 -0.000071 -0.000019  0.000001
  4C   2pz        0.001349 -0.004389  0.000946 -0.000707  0.000267  0.000059
  4C   2px        0.000275 -0.000315 -0.000062  0.000024 -0.002089 -0.001490
  4C   2py        0.001307 -0.004793 -0.000056  0.000363 -0.000529  0.001289
  4C   3pz        0.000199  0.002346 -0.001114  0.001384 -0.000582 -0.000113
  4C   3px       -0.001026  0.000818 -0.006802 -0.004964  0.000930  0.000370
  4C   3py       -0.009044  0.015111 -0.004386  0.002416 -0.000086 -0.002622
  4C   1dz2      -0.000075 -0.000021 -0.000061  0.000078 -0.000019  0.000016
  4C   1dxz       0.000012  0.000000  0.000052  0.000040 -0.000012 -0.000020
  4C   1dyz       0.000079  0.000004  0.000045 -0.000068  0.000014 -0.000028
  4C   1dx2y2    -0.000113  0.000033 -0.000035  0.000046 -0.000058  0.000049
  4C   1dxy       0.000007 -0.000010  0.000048  0.000017  0.000030  0.000011
  4C   2dz2       0.000997 -0.001962  0.000407 -0.000253  0.000294 -0.000062
  4C   2dxz      -0.000143  0.000106  0.000859  0.000586  0.000523  0.000403
  4C   2dyz      -0.000718  0.001703  0.000243 -0.000512 -0.000119 -0.000017
  4C   2dx2y2     0.000200  0.002257  0.001360 -0.001295 -0.000093  0.000232
  4C   2dxy      -0.000065 -0.000253  0.001126  0.001226  0.000816  0.000562
  4C   1f0       -0.000081 -0.000993  0.000332 -0.000408 -0.000043  0.000027
  4C   1f+1      -0.000007  0.000030  0.000144  0.000089 -0.000019 -0.000019
  4C   1f-1       0.000014  0.000689  0.000114 -0.000157 -0.000045  0.000051
  4C   1f+2      -0.000044 -0.000224 -0.000479  0.000420  0.000141 -0.000129
  4C   1f-2       0.000007  0.000022 -0.000634 -0.000612  0.000018  0.000061
  4C   1f+3      -0.000039 -0.000120  0.000243  0.000025 -0.000204 -0.000138
  4C   1f-3      -0.000191 -0.000621  0.000424 -0.000601 -0.000098  0.000144
  5C   1s        -0.468067 -0.000358  0.000390 -0.000463  0.001936 -0.002237
  5C   2s        -0.606452 -0.000590  0.000481 -0.000543  0.002441 -0.002815
  5C   3s        -0.044919  0.001830 -0.000282 -0.000222  0.000195 -0.000218
  5C   4s         0.045344 -0.008596  0.002490  0.000370 -0.002922  0.003443
  5C   5s        -0.097290  0.025067 -0.013416  0.003101  0.006386 -0.011939
  5C   1pz        0.000549 -0.000098 -0.000011  0.000004  0.000066 -0.000092
  5C   1px        0.000032 -0.000006  0.000132  0.000127  0.000247  0.000214
  5C   1py        0.000070  0.000025 -0.000131  0.000138 -0.000141  0.000121
  5C   2pz       -0.006747  0.000815 -0.000246 -0.000061  0.000375 -0.000700
  5C   2px       -0.000405  0.000059 -0.001900 -0.002088  0.000632  0.000646
  5C   2py       -0.001001  0.001186  0.002400 -0.002575  0.000198 -0.000131
  5C   3pz        0.004230 -0.001900  0.002276 -0.001121  0.001155 -0.001255
  5C   3px       -0.000364  0.001197 -0.000789 -0.000980 -0.005751 -0.005821
  5C   3py       -0.012366  0.014080 -0.001140 -0.003247  0.002583 -0.004571
  5C   1dz2       0.000081 -0.000073 -0.000061  0.000095 -0.000079  0.000069
  5C   1dxz       0.000003 -0.000014 -0.000007 -0.000004  0.000045  0.000038
  5C   1dyz      -0.000013 -0.000102 -0.000057  0.000048 -0.000017  0.000007
  5C   1dx2y2     0.000086 -0.000067 -0.000098  0.000145 -0.000085  0.000112
  5C   1dxy      -0.000017 -0.000001 -0.000000 -0.000041  0.000070  0.000029
  5C   2dz2      -0.004890  0.001105  0.000211 -0.000940  0.000178 -0.000316
  5C   2dxz      -0.000527  0.000110  0.000897  0.000930  0.000472  0.000555
  5C   2dyz      -0.001619  0.000573 -0.000208  0.000230 -0.000370  0.000417
  5C   2dx2y2    -0.000438  0.001003  0.000954 -0.001606  0.001297 -0.001680
  5C   2dxy      -0.000017 -0.000098 -0.001515 -0.000919 -0.001323 -0.000676
  5C   1f0       -0.000785 -0.000039  0.000150 -0.000173  0.000306 -0.000374
  5C   1f+1      -0.000135  0.000000  0.000042 -0.000004  0.000128 -0.000024
  5C   1f-1      -0.000456 -0.000109 -0.000069  0.000043 -0.000191  0.000092
  5C   1f+2       0.000111 -0.000033 -0.000058  0.000130 -0.000316  0.000559
  5C   1f-2      -0.000056  0.000003  0.000270  0.000226  0.000614  0.000513
  5C   1f+3      -0.000009  0.000042 -0.000117 -0.000079  0.000163  0.000255
  5C   1f-3      -0.000038  0.000200 -0.000102  0.000086 -0.000524  0.000441
  6H   1s        -0.000002 -0.000028  0.000403 -0.000032 -0.000103 -0.000023
  6H   2s         0.000150 -0.000608  0.005088  0.001168 -0.001409 -0.000131
  6H   3s         0.000392 -0.000163  0.008380  0.001206 -0.003252 -0.000936
  6H   1pz       -0.000053  0.000010  0.002177 -0.000065 -0.000647  0.000071
  6H   1px       -0.000014  0.000291  0.000302  0.000003 -0.000112  0.000069
  6H   1py        0.000082  0.000144 -0.000831  0.000041 -0.000079 -0.000050
  7H   1s         0.000005  0.000158  0.000555 -0.000092 -0.000107  0.000012
  7H   2s         0.000546  0.000778  0.003909 -0.001375 -0.000861  0.000623
  7H   3s         0.001192 -0.001106  0.004859 -0.002684 -0.001708  0.001573
  7H   1pz       -0.000007  0.000003 -0.000998  0.000174  0.000245 -0.000067
  7H   1px       -0.000005  0.000403  0.001755 -0.000346 -0.000597  0.000078
  7H   1py       -0.000037  0.000166 -0.001058  0.000161 -0.000062 -0.000025
  8C   1s         0.000119 -0.017837  0.045211  0.452248 -0.004139 -0.110123
  8C   2s         0.000135 -0.023199  0.058560  0.586222 -0.005323 -0.142616
  8C   3s        -0.000818 -0.001128  0.004365  0.039992 -0.001186 -0.010629
  8C   4s         0.005242 -0.005068 -0.004159 -0.028073  0.004535  0.015148
  8C   5s        -0.021024  0.033098  0.007210  0.055863 -0.012802 -0.044477
  8C   1pz       -0.000005 -0.000131  0.000019  0.000146 -0.000051 -0.000157
  8C   1px        0.000105  0.000180 -0.000071 -0.000475  0.000116  0.000237
  8C   1py        0.000015 -0.000203 -0.000081 -0.000383  0.000018 -0.000164
  8C   2pz        0.000483 -0.000637 -0.000650 -0.001335  0.000660  0.001390
  8C   2px       -0.001962  0.001059 -0.000510  0.003730 -0.001251 -0.002643
  8C   2py       -0.001323  0.000789  0.000829  0.002693 -0.000570 -0.002300
  8C   3pz       -0.002628  0.004931 -0.003556 -0.000657  0.002714  0.000433
  8C   3px        0.004332 -0.008889 -0.003341 -0.005689  0.004366  0.003881
  8C   3py        0.002500  0.001685  0.000432 -0.003451  0.002176  0.009946
  8C   1dz2      -0.000041 -0.000108 -0.000019  0.000005  0.000058  0.000075
  8C   1dxz      -0.000057 -0.000045  0.000008 -0.000012 -0.000033  0.000061
  8C   1dyz      -0.000030  0.000091  0.000044 -0.000011  0.000070  0.000040
  8C   1dx2y2     0.000026  0.000050  0.000051  0.000007 -0.000027  0.000032
  8C   1dxy       0.000029 -0.000013  0.000070 -0.000039  0.000007 -0.000013
  8C   2dz2      -0.000480  0.000638  0.000456  0.001995 -0.000830 -0.000809
  8C   2dxz      -0.000305 -0.000728 -0.000344  0.001120 -0.000170 -0.001113
  8C   2dyz       0.000181 -0.000355 -0.000685 -0.000438  0.000200  0.000135
  8C   2dx2y2    -0.000083  0.000739  0.000535  0.001504 -0.000057  0.000568
  8C   2dxy       0.000447 -0.001164 -0.000192  0.000880 -0.000228 -0.000868
  8C   1f0       -0.000046 -0.000353 -0.000138 -0.000890 -0.000003  0.000068
  8C   1f+1       0.000064  0.000022  0.000038  0.000376  0.000015 -0.000100
  8C   1f-1       0.000039 -0.000263  0.000071  0.000419 -0.000006 -0.000704
  8C   1f+2       0.000025  0.000272  0.000078  0.000647  0.000071 -0.000098
  8C   1f-2      -0.000001 -0.000646  0.000075  0.000104 -0.000062 -0.000037
  8C   1f+3      -0.000071  0.000093  0.000105 -0.000171 -0.000050  0.000270
  8C   1f-3      -0.000020 -0.000482  0.000041 -0.000227 -0.000026  0.000758
  9H   1s         0.000085  0.000578  0.000094 -0.000095  0.000024 -0.000002
  9H   2s         0.000743  0.003805  0.001492 -0.001707  0.000030 -0.000015
  9H   3s         0.000884  0.003373 -0.000114  0.000671  0.000495 -0.000449
  9H   1pz        0.000136  0.000307 -0.000090  0.000119  0.000072 -0.000064
  9H   1px       -0.000018 -0.000143 -0.000403 -0.000321  0.000086  0.000080
  9H   1py       -0.000187 -0.002335 -0.000183  0.000248 -0.000038  0.000006
 10H   1s        -0.000028  0.000305 -0.000015  0.000069 -0.000054  0.000094
 10H   2s        -0.001223  0.006605 -0.000764  0.000112 -0.000693  0.000323
 10H   3s        -0.003743  0.010631 -0.001025  0.000258  0.000331 -0.001000
 10H   1pz       -0.000021 -0.002552  0.000142 -0.000096  0.000101 -0.000119
 10H   1px        0.000001 -0.000011 -0.000332 -0.000244  0.000088  0.000078
 10H   1py       -0.000157  0.000085 -0.000175  0.000248  0.000053 -0.000098
 11C   1s        -0.002096  0.000045  0.012316  0.109500  0.031701  0.453742
 11C   2s        -0.002828  0.000043  0.015952  0.142052  0.041035  0.588090
 11C   3s         0.000844 -0.000579  0.000963  0.008904  0.003633  0.040818
 11C   4s        -0.007806  0.003508  0.000382  0.000644 -0.006159 -0.033351
 11C   5s         0.042898 -0.019277  0.006029 -0.014552  0.020299  0.070373
 11C   1pz       -0.000055  0.000021 -0.000014 -0.000065  0.000035  0.000226
 11C   1px        0.000148  0.000030  0.000022  0.000066 -0.000092 -0.000444
 11C   1py        0.000211 -0.000078  0.000032  0.000333  0.000092  0.000360
 11C   2pz       -0.001656  0.000210 -0.000185  0.000862 -0.000900 -0.002331
 11C   2px        0.001834 -0.001027 -0.000613 -0.000782 -0.000364  0.003701
 11C   2py       -0.000999  0.001730  0.000331 -0.000108 -0.000993 -0.004494
 11C   3pz        0.006689 -0.002970  0.000530  0.000509 -0.003627  0.000269
 11C   3px       -0.009092  0.004613 -0.002184  0.000091 -0.007618 -0.005538
 11C   3py        0.000213 -0.001422 -0.001028 -0.007800  0.002414  0.008385
 11C   1dz2      -0.000111 -0.000014  0.000026  0.000052 -0.000047 -0.000030
 11C   1dxz      -0.000052 -0.000055 -0.000038  0.000030  0.000025 -0.000013
 11C   1dyz      -0.000072  0.000041 -0.000071 -0.000047  0.000001  0.000046
 11C   1dx2y2    -0.000010  0.000030 -0.000010  0.000014  0.000073  0.000003
 11C   1dxy      -0.000034 -0.000022 -0.000046  0.000027 -0.000092  0.000016
 11C   2dz2       0.001050 -0.000542 -0.000025  0.000480  0.000931  0.002169
 11C   2dxz       0.000123 -0.000233 -0.000095 -0.000376 -0.000312  0.001582
 11C   2dyz       0.000418 -0.000141  0.000398  0.000007  0.000666  0.000122
 11C   2dx2y2     0.001024 -0.000647  0.000133  0.001843  0.000435  0.001064
 11C   2dxy       0.000816 -0.000326  0.000163 -0.000040  0.000230 -0.001473
 11C   1f0       -0.000275 -0.000028 -0.000073 -0.000320 -0.000111 -0.000931
 11C   1f+1      -0.000019  0.000010 -0.000005  0.000020 -0.000015 -0.000062
 11C   1f-1       0.000133 -0.000064 -0.000000  0.000470 -0.000010 -0.000612
 11C   1f+2       0.000435 -0.000002  0.000080  0.000287  0.000024  0.000467
 11C   1f-2       0.000525  0.000014 -0.000040 -0.000097 -0.000076 -0.000348
 11C   1f+3       0.000225 -0.000078 -0.000004 -0.000152  0.000100 -0.000044
 11C   1f-3       0.000408  0.000073 -0.000062 -0.000568 -0.000087  0.000651
 12H   1s         0.000017 -0.000032 -0.000040 -0.000417  0.000017  0.000080
 12H   2s         0.000067 -0.000353 -0.001894 -0.004445  0.000902  0.001599
 12H   3s         0.000556 -0.000132 -0.002848 -0.007792  0.001759  0.003254
 12H   1pz       -0.000049  0.000053 -0.000352 -0.002044  0.000061  0.000677
 12H   1px        0.000022 -0.000262  0.000122  0.000468 -0.000009 -0.000189
 12H   1py        0.000065  0.000173  0.000145  0.000899  0.000008  0.000030
 13H   1s         0.000019  0.000130 -0.000031 -0.000568 -0.000011  0.000112
 13H   2s         0.000051  0.000578  0.000653 -0.003879 -0.000114  0.001245
 13H   3s         0.000804 -0.001141  0.001851 -0.005047 -0.001135  0.002242
 13H   1pz       -0.000003  0.000027  0.000062  0.001134  0.000056 -0.000283
 13H   1px        0.000083 -0.000345  0.000007  0.001864 -0.000036 -0.000595
 13H   1py        0.000008  0.000247  0.000044  0.000684  0.000015  0.000153
 14C   1s        -0.001650  0.000057  0.000076 -0.000152  0.000208 -0.000246
 14C   2s        -0.002180  0.000070  0.000094 -0.000184  0.000252 -0.000297
 14C   3s         0.000312 -0.000582 -0.000222  0.000336  0.000097 -0.000155
 14C   4s        -0.005979  0.003086  0.001927 -0.002901  0.000885 -0.000936
 14C   5s         0.014072  0.007059  0.002344 -0.004067  0.001825 -0.002514
 14C   1pz        0.000039 -0.000049 -0.000017  0.000024  0.000012 -0.000027
 14C   1px       -0.000011 -0.000008 -0.000008 -0.000008  0.000003 -0.000004
 14C   1py       -0.000204 -0.000116 -0.000023  0.000037  0.000051 -0.000068
 14C   2pz       -0.001031  0.000571  0.000107 -0.000194 -0.000204  0.000358
 14C   2px       -0.000191  0.000164 -0.000282 -0.000444 -0.000592 -0.000660
 14C   2py       -0.002479  0.002421  0.001542 -0.002351  0.001464 -0.001496
 14C   3pz        0.000771  0.000628 -0.000416  0.000459 -0.000743  0.000753
 14C   3px        0.000161  0.000229 -0.000748 -0.000628 -0.001093 -0.001114
 14C   3py        0.004416  0.002544  0.001040 -0.001583  0.000391 -0.000328
 14C   1dz2      -0.000123 -0.000018 -0.000047  0.000055 -0.000067  0.000079
 14C   1dxz      -0.000007 -0.000001  0.000025  0.000026 -0.000002  0.000003
 14C   1dyz       0.000009 -0.000028 -0.000012  0.000009 -0.000019  0.000031
 14C   1dx2y2    -0.000027 -0.000054 -0.000030  0.000047 -0.000061  0.000036
 14C   1dxy       0.000009  0.000006 -0.000032 -0.000041 -0.000119 -0.000104
 14C   2dz2       0.000746 -0.000586 -0.000055  0.000310  0.000042 -0.000043
 14C   2dxz       0.000105  0.000010 -0.000293 -0.000314 -0.000145 -0.000151
 14C   2dyz       0.000091  0.000455  0.000215 -0.000220  0.000027  0.000048
 14C   2dx2y2    -0.000713 -0.000759 -0.000476  0.000731 -0.000450  0.000432
 14C   2dxy       0.000068  0.000128  0.000140  0.000039 -0.000073 -0.000181
 14C   1f0        0.000080 -0.000053 -0.000017  0.000024  0.000034 -0.000048
 14C   1f+1       0.000002 -0.000009 -0.000015 -0.000008  0.000000 -0.000003
 14C   1f-1      -0.000451 -0.000094 -0.000020  0.000052  0.000003 -0.000008
 14C   1f+2      -0.000288 -0.000057 -0.000036  0.000044  0.000012 -0.000030
 14C   1f-2       0.000045  0.000007  0.000014  0.000002  0.000012  0.000020
 14C   1f+3       0.000148  0.000025  0.000014  0.000008 -0.000117 -0.000079
 14C   1f-3       0.000691  0.000105  0.000020 -0.000052 -0.000016  0.000064
 15H   1s         0.000128  0.000002  0.000179 -0.000009  0.000526 -0.000079
 15H   2s        -0.000472  0.000047  0.000575 -0.000774  0.003773 -0.001570
 15H   3s        -0.002425  0.000271  0.000045 -0.000347  0.005398 -0.003098
 15H   1pz        0.000083  0.000004 -0.000300  0.000026 -0.001207  0.000181
 15H   1px        0.000175 -0.000050  0.000320 -0.000190  0.001854 -0.000333
 15H   1py       -0.000350 -0.000001  0.000406 -0.000067  0.000443 -0.000063
 16H   1s         0.000158 -0.000011 -0.000012 -0.000177  0.000009 -0.000526
 16H   2s        -0.000272  0.000463  0.000218 -0.001181  0.001131 -0.004011
 16H   3s        -0.002475  0.000715  0.000083 -0.000613  0.002173 -0.005775
 16H   1pz        0.000071 -0.000007  0.000030  0.000237 -0.000021  0.000880
 16H   1px       -0.000232 -0.000006 -0.000054  0.000352 -0.000099  0.001955
 16H   1py       -0.000308  0.000049 -0.000030 -0.000524  0.000023 -0.000834
 17H   1s         0.000450 -0.000040 -0.000107  0.000087  0.000007 -0.000048
 17H   2s         0.008578 -0.001146 -0.000145  0.000981  0.000170  0.000340
 17H   3s         0.011095 -0.002999  0.000591 -0.000040 -0.000391  0.001304
 17H   1pz       -0.002718 -0.000027  0.000097 -0.000141 -0.000042  0.000013
 17H   1px       -0.000164 -0.000006 -0.000067 -0.000086 -0.000292 -0.000273
 17H   1py       -0.000486  0.000021  0.000010 -0.000050  0.000242 -0.000239
 18H   1s         0.000067  0.000022  0.000037  0.000026 -0.000001  0.000045
 18H   2s         0.000943 -0.000129  0.000533  0.000128  0.000859 -0.000349
 18H   3s        -0.000993 -0.000139  0.000322  0.000003  0.000763  0.001036
 18H   1pz       -0.000069  0.000011 -0.000030  0.000046 -0.000077  0.000104
 18H   1px        0.000046  0.000001 -0.000075 -0.000037 -0.000110  0.000042
 18H   1py        0.000401 -0.000041  0.000022 -0.000003  0.000094 -0.000085
 19H   1s         0.000074  0.000020 -0.000026 -0.000033 -0.000053  0.000015
 19H   2s         0.000957 -0.000147 -0.000172 -0.000513  0.000231 -0.000947
 19H   3s        -0.001156 -0.000039 -0.000072 -0.000272 -0.000895 -0.000627
 19H   1pz       -0.000065  0.000014 -0.000050  0.000039 -0.000099  0.000109
 19H   1px        0.000008 -0.000011 -0.000049 -0.000073  0.000022 -0.000117
 19H   1py        0.000400 -0.000039  0.000011 -0.000013  0.000074 -0.000100
 20H   1s        -0.000138  0.000037 -0.000034  0.000024 -0.000085  0.000110
 20H   2s        -0.000021 -0.000018 -0.000002 -0.000032  0.000187 -0.000290
 20H   3s        -0.000119  0.000058 -0.000157  0.000201 -0.000843  0.000792
 20H   1pz       -0.000125  0.000006 -0.000001 -0.000011  0.000049 -0.000056
 20H   1px        0.000014  0.000001 -0.000043 -0.000043 -0.000063 -0.000065
 20H   1py        0.000316  0.000037  0.000054 -0.000055  0.000074 -0.000089
                      6         7         8         9        10        11   
                  -9.87383  -0.75665  -0.68896  -0.66674  -0.60468  -0.54382
                   2.00000   2.00000   2.00000   2.00000   2.00000   2.00000
                  --------  --------  --------  --------  --------  --------
  0C   1s        -0.000039 -0.038034  0.034812  0.050859 -0.001296 -0.045699
  0C   2s        -0.000043 -0.079400  0.072995  0.106786 -0.002679 -0.096662
  0C   3s        -0.000884  0.118315 -0.111768 -0.162780  0.004043  0.147586
  0C   4s         0.004848  0.131395 -0.118882 -0.186338  0.004496  0.205607
  0C   5s         0.000495 -0.004898 -0.028319  0.018892  0.015097 -0.043716
  0C   1pz       -0.000032  0.007886 -0.008812 -0.001529  0.014816 -0.003713
  0C   1px       -0.000041  0.021083 -0.028010  0.015726  0.034044 -0.009606
  0C   1py        0.000103 -0.017125 -0.023425  0.028459  0.058908  0.065386
  0C   2pz        0.000714  0.005303 -0.004723 -0.002183  0.010061  0.002075
  0C   2px        0.000353  0.017183 -0.017668  0.008894  0.021732  0.001516
  0C   2py       -0.002594 -0.014796 -0.012724  0.022199  0.036678  0.038013
  0C   3pz        0.001750  0.000877 -0.002229  0.002193  0.004524  0.006713
  0C   3px       -0.002299  0.000309 -0.018039  0.011583  0.010031 -0.018706
  0C   3py       -0.002011  0.000480 -0.010038  0.002524  0.010159  0.029644
  0C   1dz2      -0.000032 -0.001641  0.000533  0.000866  0.000671  0.001997
  0C   1dxz       0.000013  0.001000 -0.001180  0.000049  0.001324  0.000039
  0C   1dyz       0.000010 -0.000025 -0.000736  0.000055  0.001003  0.000978
  0C   1dx2y2    -0.000045 -0.000295 -0.002097  0.002433  0.003477  0.002329
  0C   1dxy       0.000001  0.000239 -0.001377 -0.000668  0.001460 -0.000413
  0C   2dz2      -0.000753 -0.003030  0.000408  0.002165  0.000858 -0.001722
  0C   2dxz       0.000006  0.001690 -0.001928 -0.001395  0.002159  0.003831
  0C   2dyz      -0.000043 -0.000404  0.000179 -0.000534 -0.000379  0.000503
  0C   2dx2y2    -0.000691 -0.001072 -0.001801  0.005758  0.002233 -0.000179
  0C   2dxy       0.000038  0.000760 -0.003411 -0.002686  0.001682  0.000913
  0C   1f0       -0.000010 -0.001319  0.001132  0.001712 -0.000138 -0.001814
  0C   1f+1       0.000008 -0.000422  0.000229  0.000014  0.000112 -0.000167
  0C   1f-1       0.000077  0.001117 -0.000783 -0.001430 -0.000109  0.001420
  0C   1f+2       0.000011  0.000657 -0.000670 -0.000817 -0.000005  0.000969
  0C   1f-2      -0.000012  0.000085 -0.000246 -0.000410  0.000131  0.000482
  0C   1f+3      -0.000042 -0.000362  0.000748  0.000392  0.000095  0.000029
  0C   1f-3      -0.000138 -0.001679  0.001439  0.002652 -0.000160 -0.002506
  1C   1s        -0.000227 -0.041733 -0.012605  0.051320  0.037624  0.043126
  1C   2s        -0.000329 -0.087150 -0.026421  0.107770  0.079378  0.091228
  1C   3s         0.000585  0.131052  0.040922 -0.164757 -0.122454 -0.138834
  1C   4s        -0.001964  0.137778  0.041448 -0.185355 -0.146216 -0.198711
  1C   5s         0.008214  0.033686  0.038735 -0.015686 -0.011223  0.058668
  1C   1pz       -0.000009  0.007208  0.010511  0.001338  0.006790 -0.009975
  1C   1px        0.000009  0.027131  0.018875  0.011928  0.000918  0.015476
  1C   1py        0.000180  0.008375 -0.047052 -0.029972 -0.007581  0.069459
  1C   2pz        0.000603  0.003943  0.006145 -0.000203  0.005433 -0.010960
  1C   2px        0.000677  0.020110  0.011232  0.006710 -0.001992  0.000762
  1C   2py       -0.003477  0.006500 -0.030933 -0.020386 -0.012567  0.042299
  1C   3pz       -0.000714  0.001950  0.004160 -0.007177  0.001667 -0.011581
  1C   3px        0.002842  0.009372  0.018280  0.006560 -0.003054  0.023981
  1C   3py       -0.005881  0.000313 -0.019733 -0.011325 -0.004907  0.025229
  1C   1dz2      -0.000097 -0.001793  0.000114  0.000797 -0.000030 -0.001996
  1C   1dxz       0.000028  0.001069  0.000900 -0.000034 -0.000030 -0.000257
  1C   1dyz      -0.000027 -0.000557 -0.000806  0.000375 -0.000061  0.000449
  1C   1dx2y2    -0.000090 -0.000160  0.001873  0.002524 -0.001078 -0.002591
  1C   1dxy      -0.000015 -0.000508 -0.002435 -0.000057 -0.000089  0.000518
  1C   2dz2       0.000848 -0.002459  0.000825  0.002270  0.001359  0.001560
  1C   2dxz      -0.000184  0.001063  0.001245 -0.000384 -0.000530 -0.004788
  1C   2dyz      -0.000225 -0.000217 -0.000283  0.001782 -0.000755  0.001257
  1C   2dx2y2     0.001161 -0.000671  0.001391  0.005574 -0.002713 -0.000184
  1C   2dxy      -0.000809 -0.001029 -0.004861  0.001238 -0.001050  0.001104
  1C   1f0       -0.000014 -0.000999 -0.000259  0.001261  0.000810  0.001442
  1C   1f+1      -0.000029 -0.000892 -0.000106  0.000602  0.000718  0.000597
  1C   1f-1       0.000093 -0.001133 -0.000036  0.001397  0.001288  0.001358
  1C   1f+2      -0.000101  0.000899  0.000108 -0.001151 -0.001372 -0.001166
  1C   1f-2       0.000015 -0.000375 -0.000233  0.000714  0.000212  0.000962
  1C   1f+3       0.000056  0.000396  0.000035 -0.000727  0.000911 -0.000987
  1C   1f-3      -0.000090  0.001652  0.000591 -0.002456 -0.002019 -0.002063
  2H   1s        -0.000056  0.026184  0.011407 -0.039569 -0.034129 -0.048068
  2H   2s        -0.000274  0.026789  0.011193 -0.045626 -0.037987 -0.059509
  2H   3s        -0.001744  0.004447 -0.000753 -0.014901 -0.010594 -0.025680
  2H   1pz        0.000120  0.003945  0.002222 -0.005742 -0.004401 -0.007262
  2H   1px       -0.000003  0.001852  0.001284 -0.000842 -0.001041 -0.001189
  2H   1py       -0.000129  0.001587 -0.001363 -0.003529 -0.002739 -0.000055
  3H   1s        -0.000062  0.026500  0.011097  0.038852 -0.034916  0.050127
  3H   2s        -0.000409  0.027236  0.010883  0.045535 -0.038877  0.061801
  3H   3s        -0.001885  0.005235 -0.000656  0.015636 -0.011850  0.024391
  3H   1pz        0.000066  0.004313  0.002253  0.005928 -0.004770  0.007497
  3H   1px        0.000018 -0.001096 -0.001135  0.000554  0.000108  0.000025
  3H   1py       -0.000106  0.001554 -0.001301  0.003099 -0.002448 -0.000074
  4C   1s        -0.000052 -0.037888  0.053069  0.000034 -0.045281  0.001620
  4C   2s        -0.000082 -0.079093  0.111207  0.000077 -0.095450  0.003428
  4C   3s         0.000456  0.118105 -0.166879 -0.000329  0.146663 -0.005333
  4C   4s        -0.001711  0.129666 -0.203070  0.001772  0.179416 -0.006102
  4C   5s         0.005080  0.010265  0.053931 -0.015494 -0.009430 -0.006577
  4C   1pz       -0.000027 -0.014058  0.014967 -0.000738  0.004039 -0.003267
  4C   1px        0.000001 -0.001778  0.000882  0.061762  0.001912 -0.101743
  4C   1py       -0.000026 -0.024451  0.009232 -0.003644  0.022140  0.005454
  4C   2pz        0.000159 -0.010293  0.014329 -0.000718 -0.001591 -0.002199
  4C   2px        0.000071 -0.001302  0.000736  0.042213  0.001109 -0.064414
  4C   2py        0.000277 -0.020867  0.012351 -0.002680  0.011899  0.003766
  4C   3pz       -0.002260 -0.002251 -0.005086  0.000455  0.002644  0.000250
  4C   3px        0.000407 -0.000556 -0.000402  0.019842  0.001330 -0.025047
  4C   3py        0.000746 -0.003530 -0.016218  0.003753  0.014608  0.002784
  4C   1dz2      -0.000042 -0.001182  0.000765  0.000039  0.000240 -0.000034
  4C   1dxz      -0.000001  0.000067 -0.000046 -0.002643 -0.000032  0.004411
  4C   1dyz      -0.000011  0.001280 -0.000750  0.000215 -0.000653 -0.000146
  4C   1dx2y2    -0.000029  0.000517 -0.001426 -0.000434  0.000683  0.000438
  4C   1dxy       0.000004 -0.000027  0.000132 -0.003477 -0.000105  0.002852
  4C   2dz2       0.000157 -0.002052  0.001642 -0.000239 -0.000356  0.000092
  4C   2dxz      -0.000042  0.000028 -0.000231 -0.003268  0.000112  0.002791
  4C   2dyz      -0.000101  0.001970 -0.003649  0.000291  0.001276  0.000053
  4C   2dx2y2    -0.000012  0.001769 -0.006688 -0.000781  0.005302  0.000000
  4C   2dxy      -0.000040 -0.000238  0.000909 -0.006335 -0.000702 -0.001262
  4C   1f0       -0.000075  0.001735 -0.002630  0.000002  0.002099 -0.000041
  4C   1f+1       0.000002  0.000014  0.000014 -0.000146 -0.000032 -0.000246
  4C   1f-1       0.000015 -0.000122  0.000618  0.000011 -0.000642 -0.000017
  4C   1f+2       0.000001 -0.000545  0.001166  0.000050 -0.001299  0.000064
  4C   1f-2       0.000006  0.000079 -0.000146  0.000446  0.000158  0.000238
  4C   1f+3      -0.000003  0.000296 -0.000510  0.000442  0.000417  0.001336
  4C   1f-3      -0.000039  0.001611 -0.002738 -0.000066  0.002234 -0.000336
  5C   1s         0.001679 -0.049205 -0.050301 -0.000041  0.004331  0.002265
  5C   2s         0.002151 -0.102718 -0.105449 -0.000095  0.009177  0.004798
  5C   3s        -0.000927  0.151406  0.157200  0.000394 -0.014235 -0.007373
  5C   4s         0.001491  0.179676  0.197405 -0.001831 -0.020206 -0.009399
  5C   5s        -0.006964 -0.042324 -0.071507  0.014490  0.008671 -0.005196
  5C   1pz       -0.000037 -0.016531 -0.005151 -0.002781  0.025475 -0.008689
  5C   1px        0.000029  0.000211 -0.002710  0.062614 -0.004607  0.104129
  5C   1py        0.000435  0.013982 -0.038761 -0.003589 -0.087411 -0.009220
  5C   2pz        0.000415 -0.015172 -0.008873 -0.001632  0.018231 -0.005154
  5C   2px       -0.000261 -0.000068 -0.002369  0.042490 -0.002716  0.064089
  5C   2py       -0.002867  0.012315 -0.026954 -0.002371 -0.059597 -0.005796
  5C   3pz        0.005020  0.005634  0.011130 -0.001574  0.001310  0.000848
  5C   3px       -0.000024  0.001049 -0.001028  0.012373 -0.000449  0.028644
  5C   3py       -0.005738  0.002198 -0.029429  0.005210 -0.006697 -0.002081
  5C   1dz2      -0.000076 -0.001406 -0.000977  0.000233 -0.000963  0.000364
  5C   1dxz      -0.000014 -0.000195 -0.000020 -0.002875  0.000315 -0.004620
  5C   1dyz      -0.000011 -0.001127  0.000557  0.000064  0.001949  0.000122
  5C   1dx2y2     0.000037 -0.000014 -0.000894  0.000219 -0.005057 -0.000135
  5C   1dxy      -0.000007 -0.000021  0.000152  0.003032  0.000698  0.002077
  5C   2dz2      -0.001328 -0.004863 -0.004494  0.000589 -0.002277  0.000460
  5C   2dxz       0.000188 -0.000560 -0.000460 -0.002960  0.000515 -0.001597
  5C   2dyz       0.000713 -0.002616 -0.001280 -0.000232  0.001939 -0.000063
  5C   2dx2y2    -0.003505  0.000131 -0.000056  0.000921 -0.011558 -0.000692
  5C   2dxy       0.000447 -0.000190 -0.000132  0.007544  0.001749 -0.002599
  5C   1f0       -0.000014  0.002188  0.002178  0.000014 -0.000456 -0.000108
  5C   1f+1       0.000005  0.000399  0.000480 -0.000136 -0.000110  0.000182
  5C   1f-1       0.000724  0.000834  0.001510  0.000052  0.000042 -0.000038
  5C   1f+2       0.000421 -0.000824 -0.001192 -0.000048  0.000538  0.000066
  5C   1f-2      -0.000042  0.000004  0.000073 -0.000488 -0.000047  0.000367
  5C   1f+3      -0.000185 -0.000434 -0.000512  0.000443  0.000009 -0.001135
  5C   1f-3      -0.000852 -0.002634 -0.003132 -0.000032  0.000221  0.000343
  6H   1s         0.000004  0.023610 -0.026425 -0.038585  0.000955  0.052347
  6H   2s         0.000576  0.024822 -0.027109 -0.043548  0.000870  0.063695
  6H   3s         0.001025  0.006915 -0.004940 -0.012479  0.000232  0.024661
  6H   1pz        0.000059  0.003697 -0.004226 -0.005779  0.000738  0.007657
  6H   1px        0.000033  0.001141 -0.001550  0.000155  0.001444  0.000463
  6H   1py       -0.000007 -0.001691  0.000379  0.002997  0.002148 -0.000071
  7H   1s         0.000041  0.021965 -0.025276 -0.041999  0.002999  0.056999
  7H   2s        -0.000558  0.023959 -0.029008 -0.046912  0.004261  0.067069
  7H   3s        -0.000453  0.005601 -0.006925 -0.007882 -0.000060  0.011316
  7H   1pz        0.000024 -0.001355  0.001625  0.003059  0.000312 -0.004135
  7H   1px       -0.000059  0.003373 -0.004369 -0.004708  0.001975  0.007023
  7H   1py        0.000078 -0.002040  0.000877  0.004149  0.001904 -0.001338
  8C   1s        -0.000086 -0.037897  0.034520 -0.051115 -0.001677  0.043266
  8C   2s        -0.000112 -0.079120  0.072384 -0.107343 -0.003491  0.091514
  8C   3s        -0.000784  0.117990 -0.110833  0.164071  0.005423 -0.139704
  8C   4s         0.004282  0.130042 -0.118017  0.184267  0.005182 -0.195801
  8C   5s         0.002173  0.000842 -0.027963  0.009714  0.017638  0.053350
  8C   1pz       -0.000022  0.006955 -0.009473 -0.001232  0.017972 -0.006484
  8C   1px        0.000048 -0.023174  0.024561  0.011140 -0.025292 -0.016267
  8C   1py        0.000087 -0.014490 -0.026704 -0.030207  0.062721 -0.065672
  8C   2pz        0.000371  0.004580 -0.004815 -0.000005  0.011949 -0.008378
  8C   2px       -0.000645 -0.018723  0.015664  0.006020 -0.016208 -0.002466
  8C   2py       -0.002448 -0.012400 -0.014705 -0.022160  0.039555 -0.039197
  8C   3pz        0.000606  0.000459 -0.003314  0.000298  0.003793 -0.008688
  8C   3px        0.001419 -0.001169  0.016058  0.005007 -0.009729 -0.023441
  8C   3py       -0.003240 -0.000639 -0.013224 -0.008205  0.010146 -0.026406
  8C   1dz2      -0.000031 -0.001630  0.000472 -0.000842  0.000704 -0.002012
  8C   1dxz      -0.000016 -0.000996  0.001129  0.000044 -0.001222  0.000116
  8C   1dyz       0.000003  0.000301 -0.000875  0.000272  0.000830 -0.000558
[...]
      f0      :     0.000788  f :     0.005345
      f+1     :     0.000636
      f-1     :     0.000420
      f+2     :     0.000945
      f-2     :     0.000331
      f+3     :     0.001299
      f-3     :     0.000925

 12 H s       :     0.917968  s :     0.917968
      pz      :     0.010504  p :     0.021247
      px      :     0.005089
      py      :     0.005654

 13 H s       :     0.906037  s :     0.906037
      pz      :     0.006286  p :     0.021319
      px      :     0.009706
      py      :     0.005326

 14 C s       :     3.204916  s :     3.204916
      pz      :     1.044888  p :     3.034647
      px      :     1.042228
      py      :     0.947531
      dz2     :     0.006957  d :     0.054054
      dxz     :     0.003777
      dyz     :     0.018418
      dx2y2   :     0.006320
      dxy     :     0.018582
      f0      :     0.000796  f :     0.003270
      f+1     :     0.000068
      f-1     :     0.000318
      f+2     :     0.000638
      f-2     :    -0.000001
      f+3     :     0.000801
      f-3     :     0.000649

 15 H s       :     0.905370  s :     0.905370
      pz      :     0.006549  p :     0.021270
      px      :     0.009467
      py      :     0.005254

 16 H s       :     0.907247  s :     0.907247
      pz      :     0.005669  p :     0.021307
      px      :     0.009608
      py      :     0.006030

 17 H s       :     0.956253  s :     0.956253
      pz      :     0.012022  p :     0.021884
      px      :     0.004673
      py      :     0.005188

 18 H s       :     0.882720  s :     0.882720
      pz      :     0.005733  p :     0.021067
      px      :     0.008828
      py      :     0.006506

 19 H s       :     0.882079  s :     0.882079
      pz      :     0.006131  p :     0.021082
      px      :     0.009041
      py      :     0.005909

 20 H s       :     0.890249  s :     0.890249
      pz      :     0.010726  p :     0.020923
      px      :     0.004781
      py      :     0.005416



                     *******************************
                     * LOEWDIN POPULATION ANALYSIS *
                     *******************************

----------------------
LOEWDIN ATOMIC CHARGES
----------------------
   0 C :   -0.261084
   1 C :   -0.238262
   2 H :    0.135036
   3 H :    0.134994
   4 C :   -0.267990
   5 C :   -0.283812
   6 H :    0.132752
   7 H :    0.132025
   8 C :   -0.261604
   9 H :    0.133036
  10 H :    0.132526
  11 C :   -0.237763
  12 H :    0.132479
  13 H :    0.132023
  14 C :   -0.284259
  15 H :    0.133685
  16 H :    0.133729
  17 H :    0.148876
  18 H :    0.117921
  19 H :    0.118260
  20 H :    0.117432

-------------------------------
LOEWDIN REDUCED ORBITAL CHARGES
-------------------------------
  0 C s       :     2.776583  s :     2.776583
      pz      :     1.024674  p :     3.047396
      px      :     1.010025
      py      :     1.012697
      dz2     :     0.077394  d :     0.397669
      dxz     :     0.052148
      dyz     :     0.073511
      dx2y2   :     0.091437
      dxy     :     0.103179
      f0      :     0.005186  f :     0.039436
      f+1     :     0.003544
      f-1     :     0.003878
      f+2     :     0.006570
      f-2     :     0.005396
      f+3     :     0.008420
      f-3     :     0.006442

  1 C s       :     2.776476  s :     2.776476
      pz      :     1.023677  p :     3.030661
      px      :     0.998938
      py      :     1.008047
      dz2     :     0.061933  d :     0.392396
      dxz     :     0.064597
      dyz     :     0.077251
      dx2y2   :     0.099596
      dxy     :     0.089020
      f0      :     0.004259  f :     0.038728
      f+1     :     0.003630
      f-1     :     0.005058
      f+2     :     0.006617
      f-2     :     0.004225
      f+3     :     0.009395
      f-3     :     0.005545

  2 H s       :     0.806041  s :     0.806041
      pz      :     0.029882  p :     0.058923
      px      :     0.013849
      py      :     0.015192

  3 H s       :     0.806091  s :     0.806091
      pz      :     0.031125  p :     0.058914
      px      :     0.013243
      py      :     0.014546

  4 C s       :     2.775097  s :     2.775097
      pz      :     1.022722  p :     3.047145
      px      :     1.019484
      py      :     1.004939
      dz2     :     0.116058  d :     0.406351
      dxz     :     0.075314
      dyz     :     0.020944
      dx2y2   :     0.121365
      dxy     :     0.072670
      f0      :     0.004223  f :     0.039397
      f+1     :     0.006349
      f-1     :     0.002737
      f+2     :     0.005773
      f-2     :     0.006672
      f+3     :     0.006914
      f-3     :     0.006729

  5 C s       :     2.732474  s :     2.732474
      pz      :     0.987127  p :     2.969013
      px      :     0.994508
      py      :     0.987378
      dz2     :     0.122930  d :     0.528838
      dxz     :     0.077764
      dyz     :     0.074781
      dx2y2   :     0.133076
      dxy     :     0.120286
      f0      :     0.005811  f :     0.053487
      f+1     :     0.006735
      f-1     :     0.004307
      f+2     :     0.009206
      f-2     :     0.006755
      f+3     :     0.012792
      f-3     :     0.007880

  6 H s       :     0.808416  s :     0.808416
      pz      :     0.031026  p :     0.058833
      px      :     0.013425
      py      :     0.014381

  7 H s       :     0.809061  s :     0.809061
      pz      :     0.018014  p :     0.058913
      px      :     0.024624
      py      :     0.016276

  8 C s       :     2.777196  s :     2.777196
      pz      :     1.025160  p :     3.047906
      px      :     1.008319
      py      :     1.014427
      dz2     :     0.068352  d :     0.397156
      dxz     :     0.058964
      dyz     :     0.078177
      dx2y2   :     0.100469
      dxy     :     0.091194
      f0      :     0.004590  f :     0.039346
      f+1     :     0.003506
      f-1     :     0.005110
      f+2     :     0.006736
      f-2     :     0.004492
      f+3     :     0.009297
      f-3     :     0.005615

  9 H s       :     0.808104  s :     0.808104
      pz      :     0.013902  p :     0.058860
      px      :     0.013229
      py      :     0.031728

 10 H s       :     0.808478  s :     0.808478
      pz      :     0.032081  p :     0.058995
      px      :     0.013167
      py      :     0.013747

 11 C s       :     2.775878  s :     2.775878
      pz      :     1.021775  p :     3.030198
      px      :     1.000313
      py      :     1.008110
      dz2     :     0.080933  d :     0.392863
      dxz     :     0.046271
      dyz     :     0.075478
      dx2y2   :     0.091308
      dxy     :     0.098873
      f0      :     0.004972  f :     0.038824
      f+1     :     0.003694
      f-1     :     0.004117
      f+2     :     0.006809
      f-2     :     0.004907
      f+3     :     0.008045
      f-3     :     0.006280

 12 H s       :     0.808648  s :     0.808648
      pz      :     0.030135  p :     0.058874
      px      :     0.013695
      py      :     0.015044

 13 H s       :     0.809087  s :     0.809087
      pz      :     0.018987  p :     0.058890
      px      :     0.025633
      py      :     0.014269

 14 C s       :     2.833140  s :     2.833140
      pz      :     1.069019  p :     3.161114
      px      :     1.063222
      py      :     1.028873
      dz2     :     0.046140  d :     0.265241
      dxz     :     0.025674
      dyz     :     0.066517
      dx2y2   :     0.045661
      dxy     :     0.081249
      f0      :     0.004272  f :     0.024764
      f+1     :     0.000335
      f-1     :     0.002894
      f+2     :     0.004854
      f-2     :     0.002944
      f+3     :     0.005104
      f-3     :     0.004361

 15 H s       :     0.807279  s :     0.807279
      pz      :     0.019752  p :     0.059037
      px      :     0.025165
      py      :     0.014120

 16 H s       :     0.807228  s :     0.807228
      pz      :     0.017051  p :     0.059043
      px      :     0.025920
      py      :     0.016073

 17 H s       :     0.793686  s :     0.793686
      pz      :     0.030234  p :     0.057438
      px      :     0.013183
      py      :     0.014022

 18 H s       :     0.820903  s :     0.820903
      pz      :     0.016934  p :     0.061176
      px      :     0.027243
      py      :     0.016999

 19 H s       :     0.820545  s :     0.820545
      pz      :     0.018226  p :     0.061195
      px      :     0.027611
      py      :     0.015359

 20 H s       :     0.821358  s :     0.821358
      pz      :     0.033311  p :     0.061210
      px      :     0.013587
      py      :     0.014312



                      *****************************
                      * MAYER POPULATION ANALYSIS *
                      *****************************

  NA   - Mulliken gross atomic population
  ZA   - Total nuclear charge
  QA   - Mulliken gross atomic charge
  VA   - Mayer's total valence
  BVA  - Mayer's bonded valence
  FA   - Mayer's free valence

  ATOM       NA         ZA         QA         VA         BVA        FA
  0 C      6.1133     6.0000    -0.1133     4.0743     4.0743    -0.0000
  1 C      6.1921     6.0000    -0.1921     4.0982     4.0982     0.0000
  2 H      0.9403     1.0000     0.0597     0.9792     0.9792     0.0000
  3 H      0.9431     1.0000     0.0569     0.9805     0.9805    -0.0000
  4 C      6.1050     6.0000    -0.1050     4.1447     4.1447    -0.0000
  5 C      5.9447     6.0000     0.0553     4.1068     4.1068    -0.0000
  6 H      0.9419     1.0000     0.0581     0.9747     0.9747    -0.0000
  7 H      0.9295     1.0000     0.0705     0.9668     0.9668     0.0000
  8 C      6.1423     6.0000    -0.1423     4.0923     4.0923    -0.0000
  9 H      0.9236     1.0000     0.0764     0.9675     0.9675     0.0000
 10 H      0.9469     1.0000     0.0531     0.9689     0.9689    -0.0000
 11 C      6.1625     6.0000    -0.1625     4.0786     4.0786    -0.0000
 12 H      0.9392     1.0000     0.0608     0.9735     0.9735    -0.0000
 13 H      0.9274     1.0000     0.0726     0.9664     0.9664    -0.0000
 14 C      6.2969     6.0000    -0.2969     3.9120     3.9120     0.0000
 15 H      0.9266     1.0000     0.0734     0.9676     0.9676     0.0000
 16 H      0.9286     1.0000     0.0714     0.9688     0.9688     0.0000
 17 H      0.9781     1.0000     0.0219     0.9686     0.9686     0.0000
 18 H      0.9038     1.0000     0.0962     0.9777     0.9777     0.0000
 19 H      0.9032     1.0000     0.0968     0.9771     0.9771     0.0000
 20 H      0.9112     1.0000     0.0888     0.9903     0.9903     0.0000

  Mayer bond orders larger than 0.100000
B(  0-C ,  1-C ) :   1.0759 B(  0-C ,  4-C ) :   1.0806 B(  0-C ,  6-H ) :   0.9417 
B(  0-C ,  7-H ) :   0.9364 B(  1-C ,  2-H ) :   0.9434 B(  1-C ,  5-C ) :   1.0615 
B(  1-C , 15-H ) :   0.9393 B(  3-H , 11-C ) :   0.9352 B(  4-C ,  8-C ) :   1.0797 
B(  4-C ,  9-H ) :   0.9417 B(  4-C , 10-H ) :   0.9252 B(  5-C , 11-C ) :   1.0614 
B(  5-C , 14-C ) :   0.9707 B(  5-C , 17-H ) :   0.9160 B(  8-C , 11-C ) :   1.0767 
B(  8-C , 12-H ) :   0.9479 B(  8-C , 13-H ) :   0.9383 B( 11-C , 16-H ) :   0.9395 
B( 14-C , 18-H ) :   0.9706 B( 14-C , 19-H ) :   0.9699 B( 14-C , 20-H ) :   0.9697 


-------
TIMINGS
-------

Total SCF time: 0 days 0 hours 0 min 8 sec 

Total time                  ....       8.775 sec
Sum of individual times     ....       7.955 sec  ( 90.7%)

SCF preparation             ....       0.025 sec  (  0.3%)
Fock matrix formation       ....       7.836 sec  ( 89.3%)
  Startup                   ....       0.001 sec  (  0.0% of F)
  Split-RI-J                ....       2.365 sec  ( 30.2% of F)
  XC integration            ....       6.276 sec  ( 80.1% of F)
    Basis function eval.    ....       1.910 sec  ( 30.4% of XC)
    Density eval.           ....       1.196 sec  ( 19.1% of XC)
    XC-Functional eval.     ....       0.121 sec  (  1.9% of XC)
    XC-Potential eval.      ....       2.944 sec  ( 46.9% of XC)
Diagonalization             ....       0.000 sec  (  0.0%)
Density matrix formation    ....       0.007 sec  (  0.1%)
Total Energy calculation    ....       0.006 sec  (  0.1%)
Population analysis         ....       0.005 sec  (  0.1%)
Orbital Transformation      ....       0.013 sec  (  0.1%)
Orbital Orthonormalization  ....       0.000 sec  (  0.0%)
DIIS solution               ....       0.052 sec  (  0.6%)
SOSCF solution              ....       0.012 sec  (  0.1%)
Finished LeanSCF after   8.8 sec

Maximum memory used throughout the entire LEANSCF-calculation: 34.0 MB

-------------------------   --------------------
FINAL SINGLE POINT ENERGY      -275.179824060992
-------------------------   --------------------


------------------------------------------------------------------------------
                              ORCA PROPERTY CALCULATIONS
------------------------------------------------------------------------------

GBWName                                 ... job.gbw
Number of atoms                         ...     21
Number of basis functions               ...    301
Max core memory                         ...  16384 MB

Electric properties:
Dipole moment                           ... YES
Quadrupole moment                       ...  NO
Static polarizability (Dipole/Dipole)   ...  NO
Static polarizability (Dipole/Quad.)    ...  NO
Static polarizability (Quad./Quad.)     ...  NO
Static polarizability (Velocity)        ...  NO
Static hyperpolarizability              ...  NO

Atomic electric properties:
Dipole moment                           ...  NO
Quadrupole moment                       ...  NO
Static polarizability                   ...  NO

Choice of electric origin               ... Center of mass
Position of electric origin             ...    -3.720792     3.415286     0.035974

General magnetic properties:
Magnetizability                         ...  NO

EPR properties:
g-Tensor (aka g-matrix)                 ...  NO
Zero-Field splitting spin-orbit         ...  NO
Zero-field splitting spin-spin          ...  NO
Hyperfine couplings                     ...  NO (   0 nuclei)
Quadrupole couplings                    ...  NO (   0 nuclei)
Contact density                         ...  NO (   0 nuclei)

NMR properties:
Chemical shifts                         ...  NO (   0 nuclei)
Spin-rotation constants                 ...  NO (   0 nuclei)
Spin-spin couplings                     ...  NO (   0 nuclei,    0 pairs)

Choice of magnetic origin               ... GIAO
Position of magnetic origin             ...     0.000000     0.000000     0.000000

Properties with geometric perturbations:
SCF Hessian                             ...  NO
IR spectrum                             ...  NO
VCD spectrum                            ...  NO
X-ray spectroscopy properties:
SCF XES/XAS/RIXS spectra                ...  NO

SCF SOC stabilization energy            ...  NO
Diagonal Born-Oppenheimer correction    ...  NO

-------------
DIPOLE MOMENT
-------------

Method             : SCF
Type of density    : Electron Density
Multiplicity       :   1
Irrep              :   0
Energy             :  -275.1798240609919048 Eh
Basis              : AO
                                X                 Y                 Z
Electronic contribution:      0.088664666       1.262945936       0.212820856
Nuclear contribution   :     -0.084788421      -1.216598356      -0.171781204
                        -----------------------------------------
Total Dipole Moment    :      0.003876246       0.046347580       0.041039653
                        -----------------------------------------
Magnitude (a.u.)       :      0.062027224
Magnitude (Debye)      :      0.157660674



--------------------
Rotational spectrum 
--------------------
 
Rotational constants in cm-1:             0.136938             0.073954             0.053865 
Rotational constants in MHz :          4105.302273          2217.097524          1614.844228 

Dipole components along the rotational axes: 
x,y,z [a.u.] :     0.043765    -0.000291     0.043954 
x,y,z [Debye]:     0.111242    -0.000739     0.111721 

 

Dipole moment calculation done in   0.0 sec 

Maximum memory used throughout the entire PROP-calculation: 24.1 MB

--------------------------------
SUGGESTED CITATIONS FOR THIS RUN
--------------------------------

Below you find a list of papers that are relevant to this ORCA run
We neither can nor want to force you to cite these papers, but we appreciate if you do
You receive ORCA, which is the product of decades of hard work by many enthusiastic individuals, for free
The only thing we kindly ask in return is that you cite our papers,
We deeply appreciate it, if you show your appreciation for ORCA by not just citing the generic ORCA reference.

Please note that relegating all ORCA citations to the supporting information does *not* help us.
SI sections are not indexed - citations you put there will not count into any citation statistics
But we need these citations in order to attract the funding resources that allow us to do what we are doing

Therefore, if you are a happy ORCA user, please consider citing a few of the papers listed below in the main body of your paper

In addition to the list printed below, the program has created the file job.bibtex that contains the list in bibtex format
You can import this file easily into all common literature databanks and citation aid programs


List of essential papers. We consider these as the minimum necessary citations

  1. Neese, F.
     Software update: the ORCA program system, version 6.0
     WIRES Comput. Molec. Sci. 2025 15(1), e70019
     doi.org/10.1002/wcms.7019

List of papers to cite with high priority. The work reported in these papers was absolutely
necessary for this run to complete.
Our perspective: the developers of density functionals and basis sets usually get cited in chemistry papers
Good! But without the algorithms to do something with them, the functionals or basis sets would not do anything.
Hence, in our opinion, the algorithm design and method developments papers are equally worthy of getting cited

  1. Neese, F.
     An improvement of the resolution of the identity approximation for the formation of the Coulomb matrix
     J. Comp. Chem. 2003 24(14), 1740-1747
     doi.org/10.1002/jcc.10318
  2. Neese, F.
     The SHARK Integral Generation and Digestion System
     J. Comp. Chem. 2022 44(3), 381
     doi.org/10.1002/jcc.26942

List of suggested additional citations. These are papers that are important in the 'surrounding' of 
of this run, or papers that preceded the highly important papers. If you like your results we are grateful for a citation.

  1. Neese, F.
     The ORCA program system
     WIRES Comput. Molec. Sci. 2012 2(1), 73-78
     doi.org/10.1002/wcms.81
  2. Neese, F.
     Software update: the ORCA program system, version 4.0
     WIRES Comput. Molec. Sci. 2018 8(1), 1-6
     doi.org/10.1002/wcms.1327
  3. Neese, F.; Wennmohs, F.; Becker, U.; Riplinger, C.
     The ORCA quantum chemistry program package
     J. Chem. Phys. 2020 152(22), 224108
     doi.org/10.1063/5.0004608
  4. Neese, F.
     Software update: The ORCA program system—Version 5.0
     WIRES Comput. Molec. Sci. 2022 12(1), e1606
     doi.org/10.1002/wcms.1606

List of optional additional citations

  1. Neese, F.
     Approximate second-order SCF convergence for spin unrestricted wavefunctions
     Chem. Phys. Lett. 2000 325(1-3), 93-98
     doi.org/10.1016/s0009-2614(00)00662-x

Timings for individual modules:

Sum of individual times          ...        9.974 sec (=   0.166 min)
Startup calculation              ...        0.528 sec (=   0.009 min)   5.3 %
SCF iterations                   ...        9.381 sec (=   0.156 min)  94.1 %
Property calculations            ...        0.065 sec (=   0.001 min)   0.6 %
                             ****ORCA TERMINATED NORMALLY****
TOTAL RUN TIME: 0 days 0 hours 0 minutes 10 seconds 59 msec
