
                                 *****************
                                 * O   R   C   A *
                                 *****************

                                            #,                                       
                                            ###                                      
                                            ####                                     
                                            #####                                    
                                            ######                                   
                                           ########,                                 
                                     ,,################,,,,,                         
                               ,,#################################,,                 
                          ,,##########################################,,             
                       ,#########################################, ''#####,          
                    ,#############################################,,   '####,        
                  ,##################################################,,,,####,       
                ,###########''''           ''''###############################       
              ,#####''   ,,,,##########,,,,          '''####'''          '####       
            ,##' ,,,,###########################,,,                        '##       
           ' ,,###''''                  '''############,,,                           
         ,,##''                                '''############,,,,        ,,,,,,###''
      ,#''                                            '''#######################'''  
     '                                                          ''''####''''         
             ,#######,   #######,   ,#######,      ##                                
            ,#'     '#,  ##    ##  ,#'     '#,    #''#        ,####,    ,#,          
            ##       ##  ##   ,#'  ##            #'  '#       #'       ,# #          
            ##       ##  #######   ##           ,######,      #####,      #          
            '#,     ,#'  ##    ##  '#,     ,#' ,#      #,     #,   #      #          
             '#######'   ##     ##  '#######'  #'      '#     '####' #    #          



                #########################################################
                #                        -***-                          #
                #          Department of theory and spectroscopy        #
                #                                                       #
                #                      Frank Neese                      #
                #                                                       #
                #     Directorship, Architecture, Infrastructure        #
                #                    SHARK, DRIVERS                     #
                #        Core code/Algorithms in most modules           #
                #                                                       #
                #        Max Planck Institute fuer Kohlenforschung      #
                #                Kaiser Wilhelm Platz 1                 #
                #                 D-45470 Muelheim/Ruhr                 #
                #                      Germany                          #
                #                                                       #
                #                  All rights reserved                  #
                #                        -***-                          #
                #########################################################


                         Program Version 6.1.0  -  RELEASE   -
                                (GIT: $679e74b7b5$)
                          ($2025-06-10 18:02:51 +0200$)


 With contributions from (in alphabetic order):
[Max-Planck-Institut fuer Kohlenforschung]                               
  Daniel Aravena         : Magnetic Suceptibility                        
  Michael Atanasov       : Ab Initio Ligand Field Theory (pilot matlab implementation)
  Alexander A. Auer      : GIAO ZORA, VPT2 properties, NMR spectrum      
  Ute Becker             : All parallelization in ORCA, NUMFREQ, NUMCALC 
  Giovanni Bistoni       : ED, misc. LED, open-shell LED, HFLD           
  Dmytro Bykov           : pre 5.0 version of the SCF Hessian            
  Marcos Casanova-Páez   : Triplet and SCS-CIS(D). UHF-(DLPNO)-IP/EA/STEOM-CCSD. UHF-CVS-IP/STEOM-CCSD   
  Vijay G. Chilkuri      : MRCI spin determinant printing, contributions to CSF-ICE 
  Pauline Colinet        : FMM embedding                                 
  Dipayan Datta          : RHF DLPNO-CCSD density                        
  Achintya Kumar Dutta   : EOM-CC, STEOM-CC                              
  Nicolas Foglia         : Exact transition moments, OPA infrastructure, MCD improvements    
  Dmitry Ganyushin       : Spin-Orbit,Spin-Spin,Magnetic field MRCI      
  Miquel Garcia-Rates    : C-PCM and meta-GGA Hessian, CCSD/C-PCM, Gaussian charge scheme 
  Tiago L. C. Gouveia    : GS-ROHF, GS-ROCIS                             
  Yang Guo               : DLPNO-NEVPT2, F12-NEVPT2, CIM, IAO-localization        
  Andreas Hansen         : Spin unrestricted coupled pair/coupled cluster methods 
  Ingolf Harden          : AUTO-CI MPn and infrastructure                
  Benjamin Helmich-Paris : MC-RPA, TRAH-(SCF,CASSCF), AVAS, COSX integrals, SCF dyn. polar., MC-PDFT, srDFT 
  Lee Huntington         : MR-EOM, pCC                                   
  Robert Izsak           : Overlap fitted RIJCOSX, COSX-SCS-MP3, EOM     
  Riya Kayal             : Wick's Theorem for AUTO-CI, AUTO-CI UHF-CCSDT 
  Emily Kempfer          : AUTO-CI RHF CISDT and CCSDT, approximate NEVPT4
  Christian Kollmar      : KDIIS, OOCD, Brueckner-CCSD(T), CCSD density, CASPT2, CASPT2-K, improved NEVPT2 
  Axel Koslowski         : Symmetry handling                             
  Simone Kossmann        : meta-GGA functionals, TD-DFT gradient, OOMP2, (MP2 Hessian; deprecated post 5.0) 
  Lucas Lang             : DCDCAS, Hyperfine gauge corrections, ICE-SOC+SSC
  Marvin Lechner         : AUTO-CI (C++ implementation), FIC-MRCC        
  Spencer Leger          : CASSCF response                               
  Dagmar Lenk            : GEPOL surface, SMD, ORCA-2-JSON               
  Dimitrios Liakos       : Extrapolation schemes; Compound Job, Property file
  Dimitrios Manganas     : Further ROCIS development; embedding schemes. LFT, Crystal Embedding 
  Dimitrios Pantazis     : SARC Basis sets                               
  Anastasios Papadopoulos: AUTO-CI, single reference methods and gradients 
  Taras Petrenko         : pre 6.0 DFT Hessian and TD-DFT gradient,  ECA, NRVS 
  Petra Pikulova         : Analytic Raman intensities                    
  Peter Pinski           : DLPNO-MP2, DLPNO-MP2 Gradient                 
  Shashank Vittal Rao    : ES-AILFT, MagRelax                            
  Christoph Reimann      : Effective Core Potentials                     
  Marius Retegan         : Local ZFS, SOC                                
  Christoph Riplinger    : Optimizer, TS searches, QM/MM, DLPNO-CCSD(T), (RO)-DLPNO pert. Triples 
  Michael Roemelt        : Original ROCIS implementation, recursive CI coupling coefficients
  Masaaki Saitow         : Open-shell DLPNO-CCSD energy and density      
  Barbara Sandhoefer     : DKH picture change effects                    
  Yorick L. A. Schmerwitz: GMF and freeze-and-release deltaSCF, NEB S-IDPP initial path                    
  Kantharuban Sivalingam : CASSCF convergence/infrastructure, NEVPT2, NEVPT3, NEVPT4(SD), FIC-MRCI and CEPA variants
  Bernardo de Souza      : ESD, SOC TD-DFT                               
  Georgi L. Stoychev     : AutoAux, RI-MP2 NMR, DLPNO-MP2 response, X2C  
  Van Anh Tran           : RI-MP2 g-tensors                              
  Willem Van den Heuvel  : Paramagnetic NMR                              
  Zikuan Wang            : NOTCH, Electric field optimization            
  Frank Wennmohs         : Technical directorship and infrastructure     
  Hang Xu                : AUTO-CI-Response properties                   
                                                                         
[FACCTs GmbH]                                                            
  Markus Bursch, Nicolas Foglia, Miquel Garcia-Rates, Ingolf Harden, Hagen Neugebauer, Anastasios Papadopoulos, 
  Christoph Riplinger, Bernardo de Souza, Georgi L. Stoychev                                                    
                                                                 
  APM, various basis sets, CI-OPT, improved COSX, DLPNO-Multilevel,           
  DOCKER, DRACO, updates on ESD, Fragmentator, GOAT, IRC, LR-CPCM, L-BFGS, MBIS, meta-GGA TD-DFT gradient, ML-optimized integration grids, 
  MM, NACMEs, nearIR, NEB, NEB-TS, NL-DFT gradient (VV10), 2- and 3-layer-ONIOM, interface openCOSMO-RS, QMMM,   
  Crystal-QMMM, RESP, rigid body optimization, SF, symmetry and pop. for TD-DFT, various functionals, SOLVATOR                                   
                                                                         
[Other institutions]                                                     
  V. Asgeirsson          : NEB                                           
  Christoph Bannwarth    : sTDA-DFT, sTD-DFT, PBEh-3c, B97-3c, D3        
  Giovanni Bistoni       : ETS/NOCV, ADLD/ADEX, COVALED                  
  Martin Brehm           : Molecular dynamics                            
  Ronald Cardenas        : ETS/NOCV                                      
  Martina Colucci        : COVALED                                       
  Sebastian Ehlert       : rSCAN, r2SCAN, r2SCAN-3c, D4, dhf basis sets  
  Marvin Friede          : D4 for Fr, Ra, Ac-Lr                          
  Lars Goerigk           : TD-DFT with DH, B97 family of functionals     
  Stefan Grimme          : VdW corrections, initial TS optimization, DFT functionals, gCP, sTDA/sTD-DF 
  Waldemar Hujo          : DFT-NL                                        
  H. Jonsson             : NEB                                           
  Holger Kruse           : gCP                                           
  Marcel Mueller         : wB97X-3c, vDZP basis set                      
  Hagen Neugebauer       : wr2SCAN, Native XTB                           
  Gianluca Regni         : ADLD/ADEX                                     
  Tobias Risthaus        : pre 6.0 range-separated hybrid DFT and stability analysis
  Lukas Wittmann         : regularized MP2, r2SCAN double-hybrids, wr2SCAN        
                                                                         
We gratefully acknowledge several colleagues who have allowed us to      
interface, adapt or use parts of their codes:                            
  Ed Valeev, F. Pavosevic, A. Kumar             : LibInt (2-el integral package), F12 methods 
  Garnet Chan, S. Sharma, J. Yang, R. Olivares  : DMRG                   
  Ulf Ekstrom                                   : XCFun DFT Library      
  Mihaly Kallay                                 : mrcc  (arbitrary order and MRCC methods)
  Frank Weinhold                                : gennbo (NPA and NBO analysis)           
  Simon Mueller                                 : openCOSMO-RS                            
  Christopher J. Cramer and Donald G. Truhlar   : smd solvation model                     
  S Lehtola, MJT Oliveira, MAL Marques          : LibXC Library                           
  Liviu Ungur et al                             : ANISO software                          


 Your calculation uses the libint2 library for the computation of 2-el integrals
 For citations please refer to: http://libint.valeyev.net

 Your ORCA version has been built with support for libXC version: 7.0.0
 For citations please refer to: https://libxc.gitlab.io

 This ORCA versions uses:
   CBLAS   interface :  Fast vector & matrix operations
   LAPACKE interface :  Fast linear algebra routines
   SCALAPACK package :  Parallel linear algebra routines
   Shared memory     :  Shared parallel matrices


  ***********************************
  * Starting time: Wed Jul  9 19:38:03 2025
  * Host name:     MacBook-Air-3.local
  * Process ID:    76403
  * Working dir.:  /Users/blenl/Desktop/Folders/Projects/DFT2/others/chlorine/single_point
  ***********************************

NOTE: MaxCore=16384 MB was set to SCF,MP2,MDCI,CIPSI,MRCI,RASCI and CIS
      => If you want to overwrite this, your respective input block should be placed after the MaxCore statement
Warning: RI is on but no J-basis has been assigned. Assigning Def2/J (nothing to worry about!)
================================================================================

----- Orbital basis set information -----
Your calculation utilizes the basis: def2-TZVP
   F. Weigend and R. Ahlrichs, Phys. Chem. Chem. Phys. 7, 3297 (2005).

----- AuxJ basis set information -----
Your calculation utilizes the auxiliary basis: def2/J
   H-Rn: F. Weigend, Phys. Chem. Chem. Phys. 8, 1057 (2006).
   Fr-Lr: K. Eichkorn, F. Weigend, O. Treutler, R. Ahlrichs; Theor. Chem. Acc. 97, 119 (1997).

================================================================================
                                        WARNINGS
                       Please study these warnings very carefully!
================================================================================


================================================================================
                                       INPUT FILE
================================================================================
NAME = job.inp
|  1> # avogadro generated ORCA file
|  2> # C6H11Cl | Single Point | revPBE/def2-TZVP
|  3> # 
|  4> ! SP revPBE def2-TZVP 
|  5> 
|  6> %maxcore 16384
|  7> 
|  8> %pal
|  9>    nprocs 1
| 10> end
| 11> %output
| 12>   Print[P_Basis] 2
| 13>   Print[P_MOs] 1
| 14> end
| 15> 
| 16> * xyz 0 1
| 17>    C     -5.064520    2.558878    0.077069
| 18>    C     -5.098769    1.049286    0.338269
| 19>    H     -1.896050    0.566098   -0.812920
| 20>    H     -2.605575    2.473334    1.358662
| 21>    C     -3.700342    3.072538   -0.386695
| 22>    C     -3.999523    0.319826   -0.427022
| 23>    H     -5.813513    2.820929   -0.679991
| 24>    H     -5.364302    3.080194    0.994637
| 25>    H     -1.593452    2.718874   -0.055627
| 26>    H     -4.977082    0.872000    1.415245
| 27>    H     -6.088991    0.660727    0.070508
| 28>    C     -2.607499    0.809244   -0.013302
| 29>    H     -3.621627    2.966794   -1.476242
| 30>    Cl    -4.128374   -1.443631   -0.175904
| 31>    C     -2.557102    2.313741    0.273751
| 32>    H     -2.250605    0.281430    0.880551
| 33>    H     -3.618893    4.144014   -0.171188
| 34>    H     -4.138757    0.482087   -1.502218
| 35> *
| 36> 
| 37> 
| 38> 
| 39>                          ****END OF INPUT****
================================================================================

                       ****************************
                       * Single Point Calculation *
                       ****************************

---------------------------------
CARTESIAN COORDINATES (ANGSTROEM)
---------------------------------
  C     -5.064520    2.558878    0.077069
  C     -5.098769    1.049286    0.338269
  H     -1.896050    0.566098   -0.812920
  H     -2.605575    2.473334    1.358662
  C     -3.700342    3.072538   -0.386695
  C     -3.999523    0.319826   -0.427022
  H     -5.813513    2.820929   -0.679991
  H     -5.364302    3.080194    0.994637
  H     -1.593452    2.718874   -0.055627
  H     -4.977082    0.872000    1.415245
  H     -6.088991    0.660727    0.070508
  C     -2.607499    0.809244   -0.013302
  H     -3.621627    2.966794   -1.476242
  Cl    -4.128374   -1.443631   -0.175904
  C     -2.557102    2.313741    0.273751
  H     -2.250605    0.281430    0.880551
  H     -3.618893    4.144014   -0.171188
  H     -4.138757    0.482087   -1.502218

----------------------------
CARTESIAN COORDINATES (A.U.)
----------------------------
  NO LB      ZA    FRAG     MASS         X           Y           Z
   0 C     6.0000    0    12.011   -9.570556    4.835579    0.145639
   1 C     6.0000    0    12.011   -9.635277    1.982863    0.639236
   2 H     1.0000    0     1.008   -3.583015    1.069770   -1.536196
   3 H     1.0000    0     1.008   -4.923823    4.673924    2.567499
   4 C     6.0000    0    12.011   -6.992633    5.806255   -0.730748
   5 C     6.0000    0    12.011   -7.558003    0.604384   -0.806955
   6 H     1.0000    0     1.008  -10.985947    5.330783   -1.284997
   7 H     1.0000    0     1.008  -10.137062    5.820723    1.879592
   8 H     1.0000    0     1.008   -3.011188    5.137927   -0.105120
   9 H     1.0000    0     1.008   -9.405322    1.647841    2.674425
  10 H     1.0000    0     1.008  -11.506525    1.248593    0.133241
  11 C     6.0000    0    12.011   -4.927459    1.529250   -0.025137
  12 H     1.0000    0     1.008   -6.843883    5.606428   -2.789693
  13 Cl   17.0000    0    35.453   -7.801496   -2.728067   -0.332410
  14 C     6.0000    0    12.011   -4.832222    4.372337    0.517314
  15 H     1.0000    0     1.008   -4.253027    0.531826    1.664000
  16 H     1.0000    0     1.008   -6.838717    7.831052   -0.323498
  17 H     1.0000    0     1.008   -7.821117    0.911012   -2.838781

--------------------------------
INTERNAL COORDINATES (ANGSTROEM)
--------------------------------
 C      0   0   0     0.000000000000     0.00000000     0.00000000
 C      1   0   0     1.532405442585     0.00000000     0.00000000
 H      2   1   0     3.437457745199    93.47230194     0.00000000
 H      1   2   3     2.774204193388    84.87612677   312.37438965
 C      1   2   3     1.529674886693   113.72870776   354.52551021
 C      2   1   3     1.525163589520   111.68639242   342.46454363
 H      1   2   3     1.096722883982   109.74170225   116.43540419
 H      1   2   3     1.097073677564   108.62935613   232.01463308
 H      4   1   2     1.756387267732    97.72787893   107.68715571
 H      2   1   3     1.098232833392   108.88686871   103.60111349
 H      2   1   3     1.096910962151   109.11861046   219.34120134
 C      3   2   1     1.097573962356    28.47101311    86.82857206
 H      5   1   2     1.097492829120   109.42616176    86.15237057
 Cl     6   2   1     1.785901290938   110.46995752   183.32163284
 C      9   4   1     1.096012744941    36.83882782   331.36780624
 H     12   3   2     1.097694917288   106.02003471   137.98108320
 H      5   1   2     1.095964426989   109.56977058   202.57999526
 H      6   2   1     1.096248684055   109.25701995   299.50404335

---------------------------
INTERNAL COORDINATES (A.U.)
---------------------------
 C      0   0   0     0.000000000000     0.00000000     0.00000000
 C      1   0   0     2.895826612617     0.00000000     0.00000000
 H      2   1   0     6.495853735352    93.47230194     0.00000000
 H      1   2   3     5.242486165079    84.87612677   312.37438965
 C      1   2   3     2.890666609787   113.72870776   354.52551021
 C      2   1   3     2.882141493621   111.68639242   342.46454363
 H      1   2   3     2.072505895530   109.74170225   116.43540419
 H      1   2   3     2.073168799330   108.62935613   232.01463308
 H      4   1   2     3.319090921119    97.72787893   107.68715571
 H      2   1   3     2.075359286392   108.88686871   103.60111349
 H      2   1   3     2.072861311761   109.11861046   219.34120134
 C      3   2   1     2.074114200575    28.47101311    86.82857206
 H      5   1   2     2.073960880979   109.42616176    86.15237057
 Cl     6   2   1     3.374864342089   110.46995752   183.32163284
 C      9   4   1     2.071163927226    36.83882782   331.36780624
 H     12   3   2     2.074342772273   106.02003471   137.98108320
 H      5   1   2     2.071072619530   109.56977058   202.57999526
 H      6   2   1     2.071609787536   109.25701995   299.50404335

---------------------
BASIS SET INFORMATION
---------------------
There are 3 groups of distinct atoms

 Group   1 Type C   : 11s6p2d1f contracted to 5s3p2d1f pattern {62111/411/11/1}
 Group   2 Type H   : 5s1p contracted to 3s1p pattern {311/1}
 Group   3 Type Cl  : 14s9p3d1f contracted to 5s5p2d1f pattern {73211/51111/21/1}

Atom   0C    basis set group =>   1
Atom   1C    basis set group =>   1
Atom   2H    basis set group =>   2
Atom   3H    basis set group =>   2
Atom   4C    basis set group =>   1
Atom   5C    basis set group =>   1
Atom   6H    basis set group =>   2
Atom   7H    basis set group =>   2
Atom   8H    basis set group =>   2
Atom   9H    basis set group =>   2
Atom  10H    basis set group =>   2
Atom  11C    basis set group =>   1
Atom  12H    basis set group =>   2
Atom  13Cl   basis set group =>   3
Atom  14C    basis set group =>   1
Atom  15H    basis set group =>   2
Atom  16H    basis set group =>   2
Atom  17H    basis set group =>   2

-------------------------
BASIS SET IN INPUT FORMAT
-------------------------

 # Basis set for element : H 
 NewGTO H 
 S 3 
   1      34.0613410000      0.0254393072
   2       5.1235746000      0.1900859489
   3       1.1646626000      0.8524411301
 S 1 
   1       0.3272304100      1.0000000000
 S 1 
   1       0.1030724100      1.0000000000
 P 1 
   1       0.8000000000      1.0000000000
  end;

 # Basis set for element : C 
 NewGTO C 
 S 6 
   1   13575.3496820000      0.0006064549
   2    2035.2333680000      0.0046979088
   3     463.2256235900      0.0243324776
   4     131.2001959800      0.0973999683
   5      42.8530158910      0.3019558425
   6      15.5841857660      0.6623360915
 S 2 
   1       6.2067138508      0.6559530854
   2       2.5764896527      0.3758563329
 S 1 
   1       0.5769633942      1.0000000000
 S 1 
   1       0.2297283136      1.0000000000
 S 1 
   1       0.0951644400      1.0000000000
 P 4 
   1      34.6972322440      0.0113272200
   2       7.9582622826      0.0761696592
   3       2.3780826883      0.3019225220
   4       0.8143320818      0.7278502735
 P 1 
   1       0.2888754725      1.0000000000
 P 1 
   1       0.1005682367      1.0000000000
 D 1 
   1       1.0970000000      1.0000000000
 D 1 
   1       0.3180000000      1.0000000000
 F 1 
   1       0.7610000000      1.0000000000
  end;

 # Basis set for element : Cl
 NewGTO Cl
 S 7 
   1   69507.9909450000      0.0005145739
   2   10426.1568800000      0.0039781345
   3    2373.2334061000      0.0204561787
   4     671.5642007100      0.0801481029
   5     218.4199979000      0.2345477031
   6      77.5722497140      0.4454336858
   7      28.8888152770      0.3546684250
 S 3 
   1     127.1052718500      0.1129368806
   2      39.3395829610      0.4837351424
   3       7.6740679989     -1.2292297390
 S 2 
   1       3.8745627630      0.6729682164
   2       1.8385832573      0.3495605141
 S 1 
   1       0.5022905754      1.0000000000
 S 1 
   1       0.1796272342      1.0000000000
 P 5 
   1     666.5042328400      0.0033502508
   2     157.6424169000      0.0267639704
   3      50.2625209780      0.1236268236
   4      18.5360781050      0.3584578792
   5       7.2940532777      0.6167729635
 P 1 
   1       2.9433248995      1.0000000000
 P 1 
   1       1.0404970818      1.0000000000
 P 1 
   1       0.3845641508      1.0000000000
 P 1 
   1       0.1306964273      1.0000000000
 D 2 
   1       4.6100000000      0.1826583505
   2       1.0110000000      0.9132917523
 D 1 
   1       0.3390000000      1.0000000000
 F 1 
   1       0.7060000000      1.0000000000
  end;

---------------------------------
AUXILIARY/J BASIS SET INFORMATION
---------------------------------
There are 3 groups of distinct atoms

 Group   1 Type C   : 12s5p4d2f1g contracted to 6s4p3d1f1g pattern {711111/2111/211/2/1}
 Group   2 Type H   : 5s2p1d contracted to 3s1p1d pattern {311/2/1}
 Group   3 Type Cl  : 14s5p5d2f1g contracted to 8s4p3d1f1g pattern {71111111/2111/311/2/1}

Atom   0C    basis set group =>   1
Atom   1C    basis set group =>   1
Atom   2H    basis set group =>   2
Atom   3H    basis set group =>   2
Atom   4C    basis set group =>   1
Atom   5C    basis set group =>   1
Atom   6H    basis set group =>   2
Atom   7H    basis set group =>   2
Atom   8H    basis set group =>   2
Atom   9H    basis set group =>   2
Atom  10H    basis set group =>   2
Atom  11C    basis set group =>   1
Atom  12H    basis set group =>   2
Atom  13Cl   basis set group =>   3
Atom  14C    basis set group =>   1
Atom  15H    basis set group =>   2
Atom  16H    basis set group =>   2
Atom  17H    basis set group =>   2

-------------------------------------
AUXILIARY/J BASIS SET IN INPUT FORMAT
-------------------------------------

 # Auxiliary/J basis set for element : H 
 NewAuxJGTO H 
 S 3 
   1      15.6752927000      0.1007184237
   2       3.6063578000      0.3404257499
   3       1.2080016000      0.6491996172
 S 1 
   1       0.4726794000      1.0000000000
 S 1 
   1       0.2018100000      1.0000000000
 P 2 
   1       2.0281365000      0.5596620919
   2       0.5358730000      0.5596620919
 D 1 
   1       2.2165124000      1.0000000000
  end;

 # Auxiliary/J basis set for element : C 
 NewAuxJGTO C 
 S 7 
   1    1861.0916331000      0.0134602335
   2     642.9939764000      0.0299160374
   3     235.1105725000      0.1008649584
   4      90.7028894000      0.2370970548
   5      36.7794552000      0.3924037254
   6      15.6046273000      0.3195862154
   7       6.8907294000      0.0530104441
 S 1 
   1       3.1478850000     -1.0000000000
 S 1 
   1       1.4777287000      1.0000000000
 S 1 
   1       0.7076466000      1.0000000000
 S 1 
   1       0.3430122000      1.0000000000
 S 1 
   1       0.1669453000      1.0000000000
 P 2 
   1      13.5472892000     -0.6769313712
   2       5.4669419000     -0.3779500978
 P 1 
   1       2.1751721000      1.0000000000
 P 1 
   1       0.8582194000      1.0000000000
 P 1 
   1       0.3376720000      1.0000000000
 D 2 
   1       5.9287253000     -0.3533329857
   2       1.9809209000     -0.7456525731
 D 1 
   1       0.8055417000     -1.0000000000
 D 1 
   1       0.3531244000     -1.0000000000
 F 2 
   1       1.6755626000      0.6311076882
   2       0.5997536000      0.4968166032
 G 1 
   1       1.0024600000     -1.0000000000
  end;

 # Auxiliary/J basis set for element : Cl
 NewAuxJGTO Cl
 S 7 
   1    8044.2766240000      0.0309054740
   2    2924.5123954000      0.0600734063
   3    1110.8168739000      0.1862207460
   4     439.9050761000      0.3715503251
   5     181.1987287000      0.4220785347
   6      77.4148302000      0.0994388367
   7      34.1977273000     -0.0596902748
 S 1 
   1      15.5648397000      1.0000000000
 S 1 
   1       7.2707873000      1.0000000000
 S 1 
   1       3.4711900000     -1.0000000000
 S 1 
   1       1.6860808000     -1.0000000000
 S 1 
   1       0.8293125000      1.0000000000
 S 1 
   1       0.4110124000      1.0000000000
 S 1 
   1       0.2042190000      1.0000000000
 P 2 
   1      12.2564993000      1.4910316311
   2       4.8922575000     -1.4908224419
 P 1 
   1       1.9265460000      1.0000000000
 P 1 
   1       0.7525989000     -1.0000000000
 P 1 
   1       0.2932189000     -1.0000000000
 D 3 
   1      28.4370504000     -1.0829567244
   2       7.2772298000      0.5502349187
   3       2.3111621000     -0.5567798939
 D 1 
   1       0.8580943000     -1.0000000000
 D 1 
   1       0.3376227000     -1.0000000000
 F 2 
   1       1.2035685000      0.5557691438
   2       0.4700000000      0.5557691438
 G 1 
   1       0.7521100000     -1.0000000000
  end;

------------------------------------------------------------------------------
                             ORCA STARTUP CALCULATIONS
                           -- RI-GTO INTEGRALS CHOSEN --
------------------------------------------------------------------------------
------------------------------------------------------------------------------
                   ___                                                        
                  /   \      - P O W E R E D   B Y -                         
                 /     \                                                     
                 |  |  |   _    _      __       _____    __    __             
                 |  |  |  | |  | |    /  \     |  _  \  |  |  /  |          
                  \  \/   | |  | |   /    \    | | | |  |  | /  /          
                 / \  \   | |__| |  /  /\  \   | |_| |  |  |/  /          
                |  |  |   |  __  | /  /__\  \  |    /   |      \           
                |  |  |   | |  | | |   __   |  |    \   |  |\   \          
                \     /   | |  | | |  |  |  |  | |\  \  |  | \   \       
                 \___/    |_|  |_| |__|  |__|  |_| \__\ |__|  \__/        
                                                                              
                      - O R C A' S   B I G   F R I E N D -                    
                                      &                                       
                       - I N T E G R A L  F E E D E R -                       
                                                                              
 v1 FN, 2020, v2 2021, v3 2022-2024                                           
------------------------------------------------------------------------------


----------------------
SHARK INTEGRAL PACKAGE
----------------------

Number of atoms                             ...     18
Number of basis functions                   ...    289
Number of shells                            ...    123
Maximum angular momentum                    ...      3
Integral batch strategy                     ... SHARK/LIBINT Hybrid
RI-J (if used) integral strategy            ... SPLIT-RIJ (Revised 2003 algorithm where possible)
Printlevel                                  ...      1
Contraction scheme used                     ... SEGMENTED contraction
Prescreening option                         ... SCHWARTZ
   Thresh                                   ... 1.000e-10
   Tcut                                     ... 1.000e-11
   Tpresel                                  ... 1.000e-11 
Coulomb Range Separation                    ... NOT USED
Exchange Range Separation                   ... NOT USED
Multipole approximations                    ... NOT USED
Finite Nucleus Model                        ... NOT USED
CABS basis                                  ... NOT available
Auxiliary Coulomb fitting basis             ... AVAILABLE
   # of basis functions in Aux-J            ...    466
   # of shells in Aux-J                     ...    162
   Maximum angular momentum in Aux-J        ...      4
Auxiliary J/K fitting basis                 ... NOT available
Auxiliary Correlation fitting basis         ... NOT available
Auxiliary 'external' fitting basis          ... NOT available

Checking pre-screening integrals            ... done (  0.0 sec) Dimension = 123
   => SHARK Basis and OBASIS are compatible. Storing Pre-screening
Shell pair information
Shell pair cut-off parameter TPreSel        ...   1.0e-11
Total number of shell pairs                 ...      7626
Shell pairs after pre-screening             ...      7155
Total number of primitive shell pairs       ...     22992
Primitive shell pairs kept                  ...     16430
          la=0 lb=0:   2131 shell pairs
          la=1 lb=0:   2167 shell pairs
          la=1 lb=1:    565 shell pairs
          la=2 lb=0:    918 shell pairs
          la=2 lb=1:    460 shell pairs
          la=2 lb=2:    103 shell pairs
          la=3 lb=0:    455 shell pairs
          la=3 lb=1:    230 shell pairs
          la=3 lb=2:     98 shell pairs
          la=3 lb=3:     28 shell pairs

Checking whether 4 symmetric matrices of dimension 289 fit in memory
:Max Core in MB      =  16384.00
 MB in use           =     10.42
 MB left             =  16373.58
 MB needed           =      1.28
 Data fit in memory  = YES
Calculating RI/J V-Matrix + Cholesky decomp.... done (  0.0 sec)
Calculating Nuclear repulsion               ... done (  0.0 sec) ENN=    381.350014859483 Eh

Diagonalization of the overlap matrix:
Smallest eigenvalue                        ... 4.801e-05
Time for diagonalization                   ...    0.004 sec
Threshold for overlap eigenvalues          ... 1.000e-07
Number of eigenvalues below threshold      ... 0
Time for construction of square roots      ...    0.001 sec
Total time needed                          ...    0.005 sec

-------------------
DFT GRID GENERATION
-------------------

General Integration Accuracy     IntAcc      ... 4.388
Radial Grid Type                 RadialGrid  ... OptM3 with GC (2021)
Angular Grid (max. ang.)         AngularGrid ... 4 (Lebedev-302)
Angular grid pruning method      GridPruning ... 4 (adaptive)
Weight generation scheme         WeightScheme... mBecke (2022)
Basis function cutoff            BFCut       ... 1.0000e-10
Integration weight cutoff        WCut        ... 1.0000e-14
Partially contracted basis set               ... off
Rotationally invariant grid construction     ... off
Angular grids for H and He will be reduced by one unit

Total number of grid points                  ...    78216
Total number of batches                      ...     1230
Average number of points per batch           ...       63
Average number of grid points per atom       ...     4345
Grids setup in   0.3 sec
Initializing property integral containers    ... done (  0.0 sec)

SHARK setup successfully completed in   0.4 seconds

Maximum memory used throughout the entire STARTUP-calculation: 45.1 MB
-------------------------------------------------------------------------------
                                 ORCA GUESS
                   Start orbitals & Density for SCF / CASSCF
-------------------------------------------------------------------------------

------------
SCF SETTINGS
------------
Hamiltonian:
 Density Functional     Method          .... DFT(GTOs)
 Exchange Functional    Exchange        .... PBE
   PBE kappa parameter   XKappa         ....  1.245000
   PBE mue parameter    XMuePBE         ....  0.219520
 Correlation Functional Correlation     .... PBE
   PBE beta parameter  CBetaPBE         ....  0.066725
 LDA part of GGA corr.  LDAOpt          .... PW91-LDA
 Gradients option       PostSCFGGA      .... off
   NL short-range parameter             ....  3.700000
 RI-approximation to the Coulomb term is turned on
   Number of AuxJ basis functions       .... 466


General Settings:
 Integral files         IntName         .... job
 Hartree-Fock type      HFTyp           .... RHF
 Total Charge           Charge          ....    0
 Multiplicity           Mult            ....    1
 Number of Electrons    NEL             ....   64
 Basis Dimension        Dim             ....  289
 Nuclear Repulsion      ENuc            ....    381.3500148595 Eh

Convergence Acceleration:
 AO-DIIS                CNVDIIS         .... on
   Start iteration      DIISMaxIt       ....    12
   Startup error        DIISStart       ....  0.200000
   # of expansion vecs  DIISMaxEq       ....     5
   Bias factor          DIISBfac        ....   1.050
   Max. coefficient     DIISMaxC        ....  10.000
 MO-DIIS                CNVKDIIS        .... off
 Trust-Rad. Augm. Hess. CNVTRAH         .... auto
   Auto Start mean grad. ratio tolernc. ....  1.125000
   Auto Start start iteration           ....    50
   Auto Start num. interpolation iter.  ....    10
   Max. Number of Micro iterations      ....    24
   Max. Number of Macro iterations      .... Maxiter - #DIIS iter
   Number of Davidson start vectors     ....     2
   Converg. threshold    (grad. norm)   ....   5.000e-05
   Grad. Scal. Fac. for Micro threshold ....   0.100
   Minimum threshold for Micro iter.    ....   1.000e-02
   NR start threshold (gradient norm)   ....   1.000e-04
   Initial trust radius                 ....   0.400
   Minimum AH scaling param. (alpha)    ....   1.000
   Maximum AH scaling param. (alpha)    .... 1000.000
   Quad. conv. algorithm                .... NR
   White noise on init. David. guess    .... on
   Maximum white noise                  ....   0.010
   Pseudo random numbers                .... off
   Inactive MOs                         .... canonical
   Orbital update algorithm             .... Taylor
   Preconditioner                       .... Diag
   Full preconditioner red. dimension   ....   250
 SOSCF                 CNVSOSCF           .... on
   Start iteration     SOSCFMaxIt         ....   150
   Startup grad/error  SOSCFStart         ....  0.003300
   Hessian update      SOSCFHessUp        .... L-BFGS
   Autom. constraints  SOSCFAutoConstrain .... off
 Level Shifting         CNVShift        .... on
   Level shift para.    LevelShift      ....    0.2500
   Turn off err/grad.   ShiftErr        ....    0.0010
 Zerner damping         CNVZerner       .... off
 Static damping         CNVDamp         .... on
   Fraction old density DampFac         ....    0.7000
   Max. Damping (<1)    DampMax         ....    0.9800
   Min. Damping (>=0)   DampMin         ....    0.0000
   Turn off err/grad.   DampErr         ....    0.1000

SCF Procedure:
 Maximum # iterations   MaxIter         ....   125
 SCF integral mode      SCFMode         .... Direct
   Integral package                     .... SHARK and LIBINT hybrid scheme
 Reset frequency        DirectResetFreq ....    20
 Integral Threshold     Thresh          ....  1.000e-10 Eh
 Primitive CutOff       TCut            ....  1.000e-11 Eh

Convergence Tolerance:
 Convergence Check Mode ConvCheckMode   .... Total+1el-Energy
 Convergence forced     ConvForced      .... 0
 Energy Change          TolE            ....  1.000e-06 Eh
 1-El. energy change                    ....  1.000e-03 Eh
 Orbital Gradient       TolG            ....  5.000e-05
 Orbital Rotation angle TolX            ....  5.000e-05
 DIIS Error             TolErr          ....  1.000e-06

------------------------------
INITIAL GUESS: MODEL POTENTIAL
------------------------------
Loading Hartree-Fock densities                     ... done
Calculating cut-offs                               ... done
Initializing the effective Hamiltonian             ... done
Setting up the integral package (SHARK)            ... done
Starting the Coulomb interaction                   ... done (   0.1 sec)
Making the grid                                    ... done (   0.1 sec)
Mapping shells                                     ... done
Starting the XC term evaluation                    ... done (   0.2 sec)
  promolecular density results
     # of electrons  =     63.995731165
     EX              =    -61.686740077
     EC              =     -2.220390908
     EX+EC           =    -63.907130985
Transforming the Hamiltonian                       ... done (   0.0 sec)
Diagonalizing the Hamiltonian                      ... done (   0.0 sec)
Back transforming the eigenvectors                 ... done (   0.0 sec)
Now organizing SCF variables                       ... done
                      ------------------
                      INITIAL GUESS DONE (   0.4 sec)
                      ------------------
             **** ENERGY FILE WAS UPDATED (job.en.tmp) ****
Finished Guess after   0.4 sec
Maximum memory used throughout the entire GUESS-calculation: 24.9 MB

-------------------------------------------------------------------------------------------
                                      ORCA LEAN-SCF
                              memory conserving SCF solver
-------------------------------------------------------------------------------------------

----------------------------------------D-I-I-S--------------------------------------------
Iteration    Energy (Eh)           Delta-E    RMSDP     MaxDP     DIISErr   Damp  Time(sec)
-------------------------------------------------------------------------------------------
               ***  Starting incremental Fock matrix formation  ***
    1    -695.2338846895030429     0.00e+00  1.35e-03  2.73e-02  1.47e-01  0.700   1.0
    2    -695.3174793684387396    -8.36e-02  1.11e-03  2.66e-02  6.63e-02  0.700   0.9
                               ***Turning on AO-DIIS***
    3    -695.3444781080144139    -2.70e-02  5.95e-04  2.12e-02  1.74e-02  0.700   0.8
    4    -695.3610660934683665    -1.66e-02  1.07e-03  4.13e-02  1.02e-02  0.000   0.8
    5    -695.3998788229877164    -3.88e-02  2.55e-04  8.16e-03  7.81e-03  0.000   0.8
                              *** Initializing SOSCF ***
---------------------------------------S-O-S-C-F--------------------------------------
Iteration    Energy (Eh)           Delta-E    RMSDP     MaxDP     MaxGrad    Time(sec)
--------------------------------------------------------------------------------------
    6    -695.4004492394011550    -5.70e-04  1.20e-04  3.87e-03  2.02e-03     0.8
               *** Restarting incremental Fock matrix formation ***
    7    -695.4004922754098743    -4.30e-05  9.93e-05  2.92e-03  3.17e-04     1.0
    8    -695.4004891903208545     3.09e-06  2.17e-05  6.99e-04  5.24e-04     0.7
    9    -695.4004964544859604    -7.26e-06  2.62e-05  1.31e-03  6.93e-05     0.7
   10    -695.4004965710352053    -1.17e-07  9.75e-06  4.94e-04  5.17e-05     0.7
                 **** Energy Check signals convergence ****

               *****************************************************
               *                     SUCCESS                       *
               *           SCF CONVERGED AFTER  10 CYCLES          *
               *****************************************************

             **** ENERGY FILE WAS UPDATED (job.en.tmp) ****

----------------
TOTAL SCF ENERGY
----------------

Total Energy       :       -695.40049677084755 Eh          -18922.80953 eV

Components:
Nuclear Repulsion  :        381.35001485948317 Eh           10377.06146 eV
Electronic Energy  :      -1076.75051163033095 Eh          -29299.87100 eV
One Electron Energy:      -1708.46420551607866 Eh          -46489.67452 eV
Two Electron Energy:        631.71369388574783 Eh           17189.80352 eV

Virial components:
Potential Energy   :      -1389.14469310033019 Eh          -37800.54884 eV
Kinetic Energy     :        693.74419632948263 Eh           18877.73931 eV
Virial Ratio       :          2.00238748006849

DFT components:
N(Alpha)           :       32.000006158874 electrons
N(Beta)            :       32.000006158874 electrons
N(Total)           :       64.000012317749 electrons
E(X)               :      -62.672127508625 Eh       
E(C)               :       -2.212644734121 Eh       
E(XC)              :      -64.884772242747 Eh       

---------------
SCF CONVERGENCE
---------------

  Last Energy change         ...    1.1655e-07  Tolerance :   1.0000e-06
  Last MAX-Density change    ...    4.9430e-04  Tolerance :   1.0000e-05
  Last RMS-Density change    ...    9.7487e-06  Tolerance :   1.0000e-06
  Last DIIS Error            ...    2.0248e-03  Tolerance :   1.0000e-06
  Last Orbital Gradient      ...    5.1726e-05  Tolerance :   5.0000e-05
  Last Orbital Rotation      ...    6.6644e-05  Tolerance :   5.0000e-05


----------------
ORBITAL ENERGIES
----------------

  NO   OCC          E(Eh)            E(eV) 
   0   2.0000    -100.653593     -2738.9235 
   1   2.0000      -9.950106      -270.7562 
   2   2.0000      -9.895242      -269.2632 
   3   2.0000      -9.895184      -269.2616 
   4   2.0000      -9.893196      -269.2075 
   5   2.0000      -9.893020      -269.2028 
   6   2.0000      -9.892285      -269.1827 
   7   2.0000      -9.155205      -249.1258 
   8   2.0000      -6.972823      -189.7402 
   9   2.0000      -6.962720      -189.4652 
  10   2.0000      -6.962628      -189.4627 
  11   2.0000      -0.794043       -21.6070 
  12   2.0000      -0.740267       -20.1437 
  13   2.0000      -0.681676       -18.5493 
  14   2.0000      -0.654885       -17.8203 
  15   2.0000      -0.561128       -15.2691 
  16   2.0000      -0.554313       -15.0836 
  17   2.0000      -0.477675       -12.9982 
  18   2.0000      -0.447297       -12.1716 
  19   2.0000      -0.433243       -11.7891 
  20   2.0000      -0.403359       -10.9760 
  21   2.0000      -0.375118       -10.2075 
  22   2.0000      -0.355171        -9.6647 
  23   2.0000      -0.347654        -9.4601 
  24   2.0000      -0.337639        -9.1876 
  25   2.0000      -0.333513        -9.0753 
  26   2.0000      -0.315931        -8.5969 
  27   2.0000      -0.283043        -7.7020 
  28   2.0000      -0.276498        -7.5239 
  29   2.0000      -0.270993        -7.3741 
  30   2.0000      -0.244875        -6.6634 
  31   2.0000      -0.243263        -6.6195 
  32   0.0000      -0.009852        -0.2681 
  33   0.0000       0.019776         0.5381 
  34   0.0000       0.033254         0.9049 
  35   0.0000       0.042142         1.1467 
  36   0.0000       0.055487         1.5099 
  37   0.0000       0.062769         1.7080 
  38   0.0000       0.075976         2.0674 
  39   0.0000       0.081618         2.2209 
  40   0.0000       0.091213         2.4820 
  41   0.0000       0.091675         2.4946 
  42   0.0000       0.107563         2.9269 
*Only the first 10 virtual orbitals were printed.
------------------
MOLECULAR ORBITALS (RHF, ROHF)
------------------
                      0         1         2         3         4         5   
                 -100.65359  -9.95011  -9.89524  -9.89518  -9.89320  -9.89302
                   2.00000   2.00000   2.00000   2.00000   2.00000   2.00000
                  --------  --------  --------  --------  --------  --------
  0C   1s        -0.000000 -0.000051  0.011162  0.001423  0.467107  0.000718
  0C   2s         0.000002 -0.000001  0.014569  0.001796  0.605473  0.000988
  0C   3s        -0.000258  0.000310  0.000273  0.001091  0.041346 -0.000030
  0C   4s         0.001428 -0.003003  0.006498 -0.004037 -0.029809  0.000110
  0C   5s        -0.001604  0.008750 -0.033258  0.016227  0.050286  0.001980
  0C   1pz       -0.000001  0.000023  0.000142 -0.000014 -0.000058 -0.000013
  0C   1px       -0.000019 -0.000012 -0.000154  0.000147  0.000500  0.000036
  0C   1py        0.000018 -0.000028 -0.000262 -0.000122 -0.000428  0.000049
  0C   2pz        0.000079  0.000038 -0.000618  0.000219  0.000434 -0.000379
  0C   2px        0.000177 -0.000214  0.001719 -0.001697 -0.003760 -0.000882
  0C   2py       -0.000751  0.002133 -0.001088  0.001002  0.003517 -0.000178
  0C   3pz        0.000232  0.000829 -0.001623  0.000258  0.001057 -0.001730
  0C   3px       -0.000575  0.003179 -0.002708  0.004097  0.002963 -0.000688
  0C   3py       -0.000218 -0.000382  0.008919 -0.002175 -0.003243 -0.002126
  0C   1dz2      -0.000019  0.000040  0.000083 -0.000048  0.000002  0.000025
  0C   1dxz      -0.000007  0.000051  0.000063  0.000033 -0.000013 -0.000003
  0C   1dyz       0.000007 -0.000008 -0.000011  0.000055  0.000010  0.000064
  0C   1dx2y2    -0.000026 -0.000009  0.000037  0.000018 -0.000009 -0.000022
  0C   1dxy      -0.000000  0.000064  0.000038 -0.000014  0.000023  0.000076
  0C   2dz2      -0.000126  0.000356 -0.000260  0.001021  0.002104  0.000084
  0C   2dxz      -0.000020 -0.000462 -0.000878  0.000333  0.001064  0.000383
  0C   2dyz      -0.000165  0.000323  0.000193  0.000326  0.000870 -0.000754
  0C   2dx2y2    -0.000154  0.000572  0.001404  0.000090  0.000733 -0.000484
  0C   2dxy      -0.000033  0.000380  0.000157 -0.000129 -0.001360 -0.000053
  0C   1f0       -0.000013  0.000037  0.000353  0.000024  0.000325 -0.000095
  0C   1f+1      -0.000005  0.000110 -0.000178  0.000002 -0.000792  0.000048
  0C   1f-1       0.000017 -0.000040 -0.000467 -0.000060  0.000766 -0.000057
  0C   1f+2      -0.000028  0.000029  0.000193  0.000125 -0.000660  0.000021
  0C   1f-2       0.000003  0.000013 -0.000020  0.000040  0.000010 -0.000029
  0C   1f+3      -0.000007 -0.000065 -0.000025  0.000005  0.000023  0.000128
  0C   1f-3      -0.000033  0.000052  0.000693  0.000127 -0.000251 -0.000011
  1C   1s         0.000005  0.000416  0.466730  0.032691 -0.011257  0.000934
  1C   2s        -0.000015  0.000663  0.604932  0.042432 -0.014505  0.001278
  1C   3s         0.000241 -0.000587  0.041941  0.001965 -0.001315 -0.000441
  1C   4s        -0.000852  0.005188 -0.033115  0.002459  0.005586  0.002202
  1C   5s         0.002858 -0.031293  0.072486 -0.015758 -0.009997 -0.015745
  1C   1pz       -0.000022 -0.000086 -0.000405 -0.000018  0.000046  0.000059
  1C   1px        0.000016  0.000208  0.000612 -0.000054 -0.000101 -0.000038
  1C   1py        0.000066 -0.000234  0.000344 -0.000035  0.000259 -0.000028
  1C   2pz        0.000174 -0.001170  0.003670 -0.000403 -0.000718 -0.000769
  1C   2px       -0.000001 -0.000220 -0.004258 -0.000731  0.000377  0.000290
  1C   2py       -0.000962  0.001677 -0.002968  0.000840  0.000780 -0.000283
  1C   3pz        0.000009  0.004922 -0.001854  0.000053 -0.000037 -0.000253
  1C   3px        0.001401 -0.008082  0.009689 -0.006962  0.002061 -0.005642
  1C   3py       -0.000583  0.003097  0.006212 -0.002248 -0.006708 -0.000817
  1C   1dz2      -0.000015  0.000144 -0.000007  0.000068  0.000079 -0.000000
  1C   1dxz      -0.000009  0.000060 -0.000013 -0.000028  0.000033  0.000067
  1C   1dyz       0.000007 -0.000057 -0.000023 -0.000011  0.000071 -0.000031
  1C   1dx2y2    -0.000037  0.000063  0.000058 -0.000114 -0.000004  0.000030
  1C   1dxy       0.000003  0.000033  0.000010 -0.000086 -0.000007 -0.000039
  1C   2dz2       0.000232 -0.001288  0.002028 -0.000914  0.000147 -0.000259
  1C   2dxz       0.000117  0.000507  0.001786  0.000478 -0.000112 -0.000473
  1C   2dyz       0.000082 -0.000415 -0.000125  0.000246  0.000095  0.000238
  1C   2dx2y2     0.000353 -0.001402  0.001579 -0.000244  0.001329 -0.000026
  1C   2dxy      -0.000153  0.001327  0.001197  0.000705 -0.000272 -0.000147
  1C   1f0        0.000007 -0.000312  0.001015  0.000048 -0.000137 -0.000006
  1C   1f+1      -0.000005 -0.000068  0.000563  0.000028  0.000109 -0.000026
  1C   1f-1       0.000027 -0.000005 -0.000190 -0.000062  0.000512  0.000045
  1C   1f+2       0.000007  0.000292 -0.000301  0.000056 -0.000399  0.000015
  1C   1f-2      -0.000007 -0.000733 -0.000262  0.000008  0.000010  0.000034
  1C   1f+3       0.000011 -0.000056  0.000252  0.000177 -0.000030  0.000014
  1C   1f-3      -0.000041 -0.000369  0.000569  0.000129 -0.000730  0.000029
  2H   1s        -0.000053 -0.000045 -0.000015 -0.000522  0.000019 -0.000002
  2H   2s        -0.000169  0.000877 -0.000566 -0.003851 -0.000566  0.000620
  2H   3s         0.000371  0.002311 -0.001495 -0.006156 -0.000275  0.001394
  2H   1pz       -0.000010  0.000143  0.000052 -0.001635  0.000030  0.000055
  2H   1px        0.000028  0.000153  0.000002  0.001559  0.000085 -0.000166
  2H   1py       -0.000009  0.000258  0.000057 -0.000530 -0.000046 -0.000266
  3H   1s        -0.000019  0.000042 -0.000037  0.000043  0.000000 -0.000363
  3H   2s         0.000350 -0.000205  0.001246 -0.000863  0.001659 -0.005729
  3H   3s         0.000408 -0.000148  0.001446 -0.000070  0.001507 -0.009128
  3H   1pz       -0.000039 -0.000069 -0.000124  0.000095 -0.000104  0.002437
  3H   1px       -0.000019 -0.000046 -0.000079  0.000077  0.000092  0.000111
  3H   1py       -0.000015 -0.000077 -0.000075  0.000347 -0.000002  0.000426
  4C   1s        -0.000001 -0.000067 -0.000020 -0.000336  0.026637  0.035124
  4C   2s         0.000002  0.000018 -0.000027 -0.000386  0.034588  0.045614
  4C   3s         0.000113 -0.001282  0.000776 -0.000639  0.002407  0.002851
  4C   4s        -0.000416  0.005706 -0.005240  0.003057  0.001357  0.002825
  4C   5s         0.001412 -0.024327  0.018935 -0.016494 -0.000845 -0.022018
  4C   1pz        0.000008 -0.000094 -0.000061 -0.000039  0.000060  0.000107
  4C   1px        0.000001  0.000006 -0.000047  0.000047 -0.000298  0.000255
  4C   1py       -0.000011  0.000153 -0.000050  0.000057 -0.000063 -0.000134
  4C   2pz       -0.000101  0.000973 -0.000353  0.000733  0.000104  0.000869
  4C   2px       -0.000059  0.000801  0.001197 -0.001635 -0.000129  0.000249
  4C   2py        0.000133 -0.000851  0.001762  0.000380  0.000212  0.000003
  4C   3pz        0.000710 -0.000107  0.002421 -0.001397 -0.000400 -0.002973
  4C   3px       -0.000411 -0.001055  0.000934  0.000125  0.005867 -0.005998
  4C   3py        0.000741  0.008914 -0.004109  0.005467 -0.001482  0.005847
  4C   1dz2      -0.000017  0.000050  0.000001  0.000057  0.000072  0.000074
  4C   1dxz       0.000000 -0.000033 -0.000007 -0.000000  0.000062 -0.000053
  4C   1dyz       0.000004  0.000061  0.000072  0.000005  0.000048  0.000042
  4C   1dx2y2    -0.000027  0.000040  0.000021  0.000120  0.000007  0.000023
  4C   1dxy       0.000003 -0.000038 -0.000018  0.000018 -0.000016  0.000036
  4C   2dz2       0.000113 -0.000529  0.000367 -0.000835  0.000299 -0.000515
  4C   2dxz      -0.000031  0.000514  0.000239 -0.000353  0.000410 -0.000674
  4C   2dyz       0.000069 -0.000503  0.000153  0.000150  0.000381  0.000601
  4C   2dx2y2     0.000115  0.000033 -0.000458 -0.000022 -0.001369 -0.001035
  4C   2dxy       0.000042 -0.000269 -0.000681  0.000938 -0.000932  0.001138
  4C   1f0        0.000019 -0.000049  0.000086  0.000038  0.000194  0.000248
  4C   1f+1      -0.000004 -0.000028 -0.000026  0.000039 -0.000273  0.000040
  4C   1f-1       0.000006 -0.000002 -0.000009  0.000016 -0.000260 -0.000100
  4C   1f+2       0.000011 -0.000011 -0.000056  0.000067 -0.000491 -0.000332
  4C   1f-2       0.000005 -0.000030 -0.000070  0.000094 -0.000421  0.000774
  4C   1f+3      -0.000015  0.000014  0.000101 -0.000097 -0.000356 -0.000018
  4C   1f-3      -0.000025  0.000093 -0.000120  0.000078 -0.000508 -0.000394
  5C   1s        -0.000017  0.468085 -0.000429 -0.000465  0.000049  0.000026
  5C   2s         0.000058  0.606739 -0.000443 -0.000506  0.000153  0.000048
  5C   3s        -0.000466  0.042596 -0.000359 -0.000147 -0.001050  0.000625
  5C   4s         0.001272 -0.037160  0.004092  0.002805  0.003923 -0.005174
  5C   5s        -0.006526  0.076991 -0.023044 -0.000971 -0.016757  0.019863
  5C   1pz       -0.000026  0.000519  0.000078  0.000019 -0.000065 -0.000061
  5C   1px        0.000007  0.000021 -0.000226  0.000252 -0.000032  0.000014
  5C   1py        0.000159 -0.000648  0.000151  0.000120 -0.000003  0.000043
  5C   2pz        0.000124 -0.005216  0.001153  0.000433  0.000675 -0.000347
  5C   2px        0.000080 -0.000645 -0.000516  0.000430  0.001643 -0.001030
  5C   2py       -0.000467  0.003037  0.000376  0.000038 -0.000379 -0.001484
  5C   3pz       -0.002038  0.002348 -0.001896  0.000667 -0.002075  0.004053
  5C   3px       -0.000082  0.003285  0.005511 -0.004817 -0.000878  0.001614
  5C   3py        0.001282  0.017022 -0.006684  0.000715 -0.005177  0.003990
  5C   1dz2       0.000049  0.000048  0.000082  0.000131  0.000102  0.000021
  5C   1dxz      -0.000004  0.000000  0.000078 -0.000067  0.000000 -0.000011
  5C   1dyz       0.000028 -0.000031 -0.000009 -0.000038 -0.000009 -0.000095
  5C   1dx2y2     0.000107  0.000094  0.000097  0.000105  0.000177  0.000056
  5C   1dxy      -0.000015 -0.000046 -0.000028  0.000032  0.000013 -0.000018
  5C   2dz2      -0.000347  0.004358 -0.000764 -0.000135 -0.001049  0.000190
  5C   2dxz       0.000045  0.000834  0.000480 -0.000155  0.000264  0.000012
  5C   2dyz      -0.000168 -0.000089 -0.000447 -0.000206 -0.000074  0.000062
  5C   2dx2y2    -0.000555  0.001561 -0.001019 -0.001604 -0.000216 -0.000385
  5C   2dxy       0.000109 -0.000292  0.001183 -0.000854  0.000877 -0.000590
  5C   1f0       -0.000021 -0.000827  0.000349  0.000294  0.000002  0.000069
  5C   1f+1       0.000029 -0.000323  0.000072  0.000359 -0.000036  0.000028
  5C   1f-1       0.000114  0.000161 -0.000054  0.000269 -0.000015 -0.000005
  5C   1f+2      -0.000082  0.000218 -0.000296 -0.000465  0.000078 -0.000026
  5C   1f-2       0.000020  0.000014  0.000812 -0.000289  0.000057 -0.000027
  5C   1f+3      -0.000026  0.000013  0.000044  0.000363  0.000086 -0.000120
  5C   1f-3      -0.000155  0.000149  0.000334  0.000562 -0.000135  0.000081
  6H   1s        -0.000019 -0.000042 -0.000014  0.000002 -0.000549 -0.000063
  6H   2s         0.000064  0.001178  0.000139 -0.000621 -0.003969 -0.000505
  6H   3s         0.000165  0.000824  0.000849 -0.000162 -0.005832 -0.001289
  6H   1pz       -0.000013  0.000067 -0.000049  0.000020 -0.001560 -0.000024
  6H   1px        0.000007  0.000217  0.000073 -0.000099 -0.001662 -0.000095
  6H   1py       -0.000002 -0.000115  0.000322  0.000070  0.000558 -0.000050
  7H   1s         0.000009 -0.000054 -0.000056 -0.000008 -0.000475  0.000001
  7H   2s         0.000044 -0.000134  0.000165 -0.000776 -0.004200  0.001235
  7H   3s         0.000043 -0.001179  0.001191 -0.000750 -0.007159  0.001377
  7H   1pz       -0.000012 -0.000008 -0.000094  0.000010  0.001906 -0.000129
  7H   1px        0.000006  0.000036  0.000148 -0.000052 -0.000750  0.000098
  7H   1py        0.000028 -0.000029  0.000288  0.000078  0.001152 -0.000123
  8H   1s         0.000006  0.000005  0.000003 -0.000048 -0.000093 -0.000586
  8H   2s        -0.000132 -0.000879  0.000385 -0.001005 -0.001019 -0.004161
  8H   3s        -0.000282 -0.001480 -0.000396  0.000298 -0.001519 -0.004753
  8H   1pz       -0.000006 -0.000006 -0.000034 -0.000002 -0.000074 -0.000617
  8H   1px        0.000011  0.000060 -0.000016  0.000026  0.000200  0.002152
  8H   1py        0.000036  0.000053 -0.000049  0.000413  0.000022  0.000881
  9H   1s        -0.000025  0.000042 -0.000344 -0.000049  0.000061 -0.000053
  9H   2s        -0.000232  0.001332 -0.006015  0.001337 -0.000638  0.001537
  9H   3s        -0.000209  0.000691 -0.009330  0.001124  0.000003  0.002114
  9H   1pz        0.000013 -0.000138  0.002456  0.000096 -0.000017 -0.000149
  9H   1px       -0.000011 -0.000242  0.000085 -0.000096 -0.000084  0.000068
  9H   1py       -0.000037  0.000188 -0.000487 -0.000029 -0.000317  0.000072
 10H   1s        -0.000029 -0.000154 -0.000556 -0.000129 -0.000035  0.000001
 10H   2s         0.000030 -0.000311 -0.003955 -0.001421 -0.000857 -0.000010
 10H   3s         0.000322  0.001321 -0.004629 -0.002142  0.000567 -0.001119
 10H   1pz        0.000018  0.000060 -0.000476 -0.000095  0.000016 -0.000040
 10H   1px        0.000018 -0.000249 -0.002167 -0.000382  0.000058 -0.000021
 10H   1py       -0.000037  0.000269 -0.000835 -0.000115 -0.000384 -0.000017
 11C   1s         0.000003  0.000395 -0.032697  0.466737 -0.000545 -0.010609
 11C   2s        -0.000010  0.000619 -0.042336  0.604997 -0.000764 -0.013655
 11C   3s         0.000207 -0.000785 -0.002984  0.041471  0.001058 -0.001498
 11C   4s        -0.000710  0.006467  0.002144 -0.030441 -0.004862  0.007146
 11C   5s         0.002760 -0.038662 -0.000460  0.048341  0.018922 -0.038304
 11C   1pz        0.000007 -0.000133  0.000012 -0.000073 -0.000015  0.000135
 11C   1px       -0.000017 -0.000219  0.000017 -0.000592 -0.000162  0.000157
 11C   1py        0.000051 -0.000211 -0.000041  0.000409  0.000119  0.000227
 11C   2pz       -0.000131  0.000531 -0.000756  0.000378  0.000182 -0.000289
 11C   2px        0.000063 -0.000338  0.000407  0.004282  0.001816 -0.001470
 11C   2py       -0.000768  0.002318 -0.000009 -0.003269 -0.001404  0.001261
 11C   3pz        0.000660  0.005047 -0.003594  0.001034  0.000666 -0.001151
 11C   3px       -0.001108  0.009793  0.001268 -0.002525 -0.004146  0.003276
 11C   3py       -0.000379 -0.000399  0.002550  0.002644  0.002741 -0.009221
 11C   1dz2      -0.000031  0.000142  0.000013  0.000005 -0.000043  0.000078
 11C   1dxz       0.000002 -0.000008  0.000012  0.000024 -0.000037 -0.000071
 11C   1dyz      -0.000011 -0.000082 -0.000059 -0.000003 -0.000042  0.000001
 11C   1dx2y2    -0.000027  0.000016 -0.000010  0.000015  0.000017  0.000012
 11C   1dxy       0.000020 -0.000042  0.000074  0.000016 -0.000025  0.000047
 11C   2dz2       0.000310 -0.000713 -0.000082  0.002253  0.001053 -0.000204
 11C   2dxz      -0.000144 -0.000083 -0.000358 -0.000803 -0.000271  0.000971
 11C   2dyz       0.000063  0.000618  0.000901 -0.000936 -0.000399 -0.000247
 11C   2dx2y2     0.000295 -0.002264 -0.000303  0.000666  0.000020  0.001395
 11C   2dxy      -0.000001 -0.000652  0.000338 -0.001279 -0.000013  0.000132
 11C   1f0        0.000003 -0.000339 -0.000069  0.000211 -0.000004  0.000339
 11C   1f+1       0.000015 -0.000304 -0.000090  0.000876 -0.000038  0.000132
 11C   1f-1       0.000027 -0.000319  0.000166 -0.000721  0.000017  0.000477
 11C   1f+2       0.000026  0.000221  0.000025 -0.000616  0.000114  0.000268
 11C   1f-2       0.000014  0.000271 -0.000043 -0.000100  0.000038 -0.000032
 11C   1f+3      -0.000030 -0.000407 -0.000110  0.000055 -0.000000  0.000024
 11C   1f-3      -0.000023 -0.000481  0.000067  0.000238 -0.000069 -0.000717
 12H   1s        -0.000037 -0.000017  0.000098  0.000008  0.000032 -0.000051
 12H   2s         0.000173  0.001251 -0.000110  0.001538 -0.001221  0.000405
 12H   3s         0.000191  0.002917 -0.000802  0.000864 -0.000913  0.000092
 12H   1pz        0.000023  0.000011  0.000119  0.000124 -0.000236 -0.000119
 12H   1px       -0.000006  0.000033 -0.000049 -0.000022  0.000315 -0.000265
 12H   1py       -0.000031  0.000078 -0.000085  0.000048  0.000183  0.000242
 13Cl  1s        -1.000500  0.000036 -0.000010 -0.000005  0.000000  0.000004
 13Cl  2s         0.033167 -0.000086  0.000020  0.000011 -0.000000 -0.000008
 13Cl  3s         0.011677 -0.000262  0.000062  0.000032 -0.000004 -0.000026
 13Cl  4s        -0.004669 -0.000125  0.000129  0.000309  0.000310  0.000202
 13Cl  5s         0.004056  0.003372 -0.001531 -0.001978 -0.001475 -0.001203
 13Cl  1pz        0.000010  0.000001  0.000002 -0.000000 -0.000005 -0.000002
 13Cl  1px       -0.000005 -0.000002 -0.000008  0.000009  0.000002 -0.000001
 13Cl  1py       -0.000076 -0.000022  0.000010  0.000013  0.000011  0.000006
 13Cl  2pz        0.000005 -0.000008 -0.000010  0.000001  0.000025  0.000008
 13Cl  2px        0.000004  0.000012  0.000046 -0.000053 -0.000013  0.000005
 13Cl  2py        0.000050  0.000141 -0.000058 -0.000073 -0.000061 -0.000034
 13Cl  3pz       -0.000041  0.000063  0.000032 -0.000006 -0.000084 -0.000026
 13Cl  3px        0.000005 -0.000055 -0.000163  0.000201  0.000040 -0.000010
 13Cl  3py        0.000068 -0.000677  0.000263  0.000306  0.000249  0.000116
 13Cl  4pz        0.000122 -0.000440 -0.000006  0.000051  0.000198  0.000047
 13Cl  4px       -0.000042  0.000252  0.000334 -0.000498 -0.000073 -0.000000
 13Cl  4py       -0.000541  0.003239 -0.001020 -0.001098 -0.000772 -0.000356
 13Cl  5pz       -0.000019 -0.000174 -0.000190 -0.000037  0.000056 -0.000186
 13Cl  5px        0.000107 -0.000088  0.000072 -0.000194  0.000118 -0.000481
 13Cl  5py        0.001110  0.001440 -0.000302 -0.000504 -0.000216 -0.000114
 13Cl  1dz2       0.000048  0.000074  0.000053  0.000013  0.000005  0.000016
 13Cl  1dxz      -0.000002  0.000032 -0.000049  0.000012 -0.000004 -0.000005
 13Cl  1dyz       0.000003 -0.000021  0.000040 -0.000004 -0.000009 -0.000010
 13Cl  1dx2y2     0.000095 -0.000073  0.000033  0.000053  0.000040  0.000031
 13Cl  1dxy      -0.000018  0.000032 -0.000008 -0.000005  0.000008  0.000022
 13Cl  2dz2       0.000032 -0.001230  0.000128  0.000242  0.000187 -0.000018
 13Cl  2dxz       0.000011 -0.000154  0.000140 -0.000025  0.000012  0.000022
 13Cl  2dyz       0.000086 -0.000407 -0.000157  0.000062  0.000146  0.000055
 13Cl  2dx2y2     0.000034 -0.001422  0.000378  0.000222  0.000207 -0.000044
 13Cl  2dxy       0.000006  0.000143  0.000282 -0.000390 -0.000035 -0.000148
 13Cl  1f0       -0.000021  0.000006 -0.000003 -0.000018 -0.000041 -0.000020
 13Cl  1f+1       0.000006 -0.000012 -0.000012  0.000003  0.000007 -0.000005
 13Cl  1f-1       0.000056 -0.000090  0.000041 -0.000001  0.000069 -0.000031
 13Cl  1f+2      -0.000032 -0.000014  0.000040  0.000015 -0.000055 -0.000026
 13Cl  1f-2       0.000003 -0.000048 -0.000052  0.000035 -0.000012  0.000009
 13Cl  1f+3      -0.000017 -0.000035  0.000087 -0.000137 -0.000023 -0.000006
 13Cl  1f-3      -0.000075 -0.000129 -0.000099 -0.000039 -0.000055 -0.000001
 14C   1s        -0.000002 -0.000015 -0.001706  0.010532 -0.002731  0.466575
 14C   2s         0.000008 -0.000016 -0.002147  0.013739 -0.003473  0.604732
 14C   3s        -0.000291  0.001102 -0.000768  0.000547 -0.001199  0.041758
 14C   4s         0.001612 -0.007434  0.002579  0.004439  0.004889 -0.032325
 14C   5s        -0.001647  0.022972 -0.016109 -0.006959 -0.020098  0.073397
 14C   1pz        0.000033  0.000026  0.000067  0.000027  0.000017 -0.000339
 14C   1px        0.000022 -0.000045  0.000046  0.000104  0.000098 -0.000563
 14C   1py        0.000019 -0.000043  0.000073 -0.000275  0.000091 -0.000349
 14C   2pz       -0.000478  0.000888 -0.000731 -0.000664 -0.000795  0.003248
 14C   2px       -0.000256  0.001933 -0.000518 -0.000555  0.000305  0.004306
 14C   2py       -0.000581  0.002323 -0.000053 -0.000591 -0.001392  0.003072
 14C   3pz       -0.000656 -0.004432  0.001221 -0.000178  0.000175 -0.001705
 14C   3px        0.000924 -0.004392  0.004669 -0.002221  0.006838 -0.009492
 14C   3py        0.000305 -0.001074  0.000404  0.006155  0.002567 -0.006488
 14C   1dz2      -0.000021  0.000012  0.000001  0.000077  0.000072 -0.000000
 14C   1dxz       0.000004 -0.000075 -0.000065 -0.000026  0.000032  0.000001
 14C   1dyz      -0.000010 -0.000044  0.000048 -0.000066  0.000013  0.000011
 14C   1dx2y2    -0.000027 -0.000028  0.000024  0.000006 -0.000116  0.000022
 14C   1dxy       0.000006 -0.000043 -0.000026 -0.000026 -0.000077  0.000010
 14C   2dz2      -0.000178  0.000664 -0.000242  0.000234 -0.001027  0.001995
 14C   2dxz       0.000082 -0.000411  0.000533  0.000104 -0.000392 -0.001746
 14C   2dyz       0.000154 -0.000081 -0.000185 -0.000150 -0.000138  0.000038
 14C   2dx2y2    -0.000042  0.001002 -0.000217  0.001415 -0.000463  0.001404
 14C   2dxy      -0.000027  0.000155 -0.000149 -0.000112  0.000796  0.001385
 14C   1f0        0.000017 -0.000072  0.000007 -0.000083 -0.000048  0.001091
 14C   1f+1      -0.000004  0.000006  0.000024 -0.000099 -0.000004 -0.000338
 14C   1f-1       0.000008 -0.000051  0.000001 -0.000483  0.000057  0.000195
 14C   1f+2       0.000010 -0.000058  0.000057 -0.000464  0.000078 -0.000300
 14C   1f-2       0.000002 -0.000051  0.000026  0.000006 -0.000045 -0.000347
 14C   1f+3       0.000012  0.000085 -0.000007  0.000038 -0.000140 -0.000233
 14C   1f-3      -0.000035  0.000094 -0.000075  0.000696 -0.000045 -0.000562
 15H   1s        -0.000001  0.000015  0.000029 -0.000467 -0.000012 -0.000042
 15H   2s        -0.000014  0.000037  0.001946 -0.004355 -0.000818  0.000026
 15H   3s        -0.000309  0.000200  0.002503 -0.007112 -0.000984  0.001267
 15H   1pz       -0.000045  0.000087 -0.000294  0.001865  0.000019 -0.000145
 15H   1px       -0.000014  0.000245 -0.000211  0.000879  0.000069 -0.000168
 15H   1py       -0.000049  0.000186  0.000226 -0.001164 -0.000051 -0.000265
 16H   1s         0.000043 -0.000021  0.000028 -0.000088 -0.000091 -0.000194
 16H   2s        -0.000020 -0.000367 -0.000580 -0.000693 -0.001468 -0.001602
 16H   3s        -0.000711 -0.001805 -0.000852 -0.001023  0.000304  0.000182
 16H   1pz       -0.000029  0.000077 -0.000001  0.000063 -0.000050 -0.000076
 16H   1px        0.000001 -0.000006  0.000056 -0.000014  0.000415 -0.000283
 16H   1py       -0.000014  0.000095  0.000050  0.000152  0.000303  0.000465
 17H   1s         0.000034 -0.000444 -0.000019  0.000104  0.000033  0.000110
 17H   2s         0.000096 -0.008057  0.001084 -0.000740  0.001395  0.000082
 17H   3s        -0.000061 -0.009648  0.001287 -0.000539  0.000502  0.000021
 17H   1pz       -0.000009 -0.002668  0.000085 -0.000042  0.000073  0.000118
 17H   1px       -0.000004 -0.000344  0.000284 -0.000282  0.000020  0.000079
 17H   1py       -0.000101  0.000275 -0.000257 -0.000221 -0.000078  0.000067
                      6         7         8         9        10        11   
                  -9.89228  -9.15521  -6.97282  -6.96272  -6.96263  -0.79404
                   2.00000   2.00000   2.00000   2.00000   2.00000   2.00000
                  --------  --------  --------  --------  --------  --------
  0C   1s         0.026791  0.000001 -0.000002  0.000000 -0.000000 -0.022107
  0C   2s         0.034649 -0.000010  0.000026  0.000002 -0.000000 -0.046085
  0C   3s         0.002862  0.000944 -0.000558  0.000247 -0.000201  0.067385
  0C   4s        -0.007961 -0.005301  0.002229 -0.001175  0.000772  0.080483
  0C   5s         0.038456  0.007018 -0.009098 -0.003051  0.006022 -0.008427
  0C   1pz        0.000128  0.000002  0.000004  0.000007 -0.000002 -0.001263
  0C   1px       -0.000152  0.000067 -0.000046  0.000035  0.000014  0.012328
  0C   1py       -0.000217 -0.000056  0.000114 -0.000047  0.000075 -0.015842
  0C   2pz        0.000133 -0.000290  0.000128  0.000016  0.000241 -0.000482
  0C   2px       -0.001711 -0.000648  0.000481 -0.000443 -0.000179  0.010613
  0C   2py        0.001099  0.002644 -0.001081  0.000727 -0.001075 -0.016039
  0C   3pz       -0.003508 -0.001040  0.001414 -0.000547  0.002015  0.000599
  0C   3px        0.009363  0.002453 -0.002835  0.000669  0.001404 -0.006108
  0C   3py       -0.000356  0.000792 -0.000558  0.001999 -0.001076 -0.004725
  0C   1dz2      -0.000088  0.000069  0.000009  0.000005 -0.000018 -0.001229
  0C   1dxz      -0.000020  0.000019 -0.000011  0.000018  0.000002 -0.000409
  0C   1dyz      -0.000075 -0.000028 -0.000023 -0.000010  0.000001 -0.000286
  0C   1dx2y2     0.000054  0.000092 -0.000027  0.000013 -0.000014 -0.000568
  0C   1dxy      -0.000007  0.000002  0.000054 -0.000006  0.000007 -0.000207
  0C   2dz2       0.000447  0.000413 -0.000467  0.000232 -0.000040 -0.002884
  0C   2dxz      -0.000465  0.000091 -0.000058 -0.000079 -0.000065 -0.000611
  0C   2dyz       0.000601  0.000616 -0.000157  0.000264  0.000118 -0.000924
  0C   2dx2y2     0.001042  0.000528 -0.000372  0.000133 -0.000473 -0.002069
  0C   2dxy       0.000788  0.000109 -0.000085  0.000169 -0.000111 -0.000636
  0C   1f0        0.000419  0.000045 -0.000026  0.000020  0.000002  0.000211
  0C   1f+1      -0.000245  0.000015  0.000006  0.000014 -0.000002 -0.000709
  0C   1f-1      -0.000262 -0.000058  0.000047 -0.000028  0.000045  0.000808
  0C   1f+2      -0.000377  0.000093 -0.000025  0.000043  0.000001 -0.000781
  0C   1f-2      -0.000374 -0.000007 -0.000004 -0.000001  0.000001 -0.000130
  0C   1f+3      -0.000360  0.000019  0.000015 -0.000021 -0.000008 -0.000092
  0C   1f-3      -0.000526  0.000112 -0.000101  0.000042 -0.000044 -0.001020
  1C   1s        -0.000617 -0.000004 -0.000002  0.000001 -0.000002 -0.034693
  1C   2s        -0.000790  0.000046  0.000019 -0.000010  0.000025 -0.072358
  1C   3s        -0.000890 -0.000907  0.000019 -0.000049 -0.000263  0.108532
  1C   4s         0.005558  0.003165 -0.002070  0.000756  0.000994  0.114631
  1C   5s        -0.024249 -0.012472  0.011104  0.003224 -0.006438  0.038804
  1C   1pz       -0.000024  0.000078  0.000028  0.000044 -0.000024 -0.015817
  1C   1px       -0.000062 -0.000058 -0.000018 -0.000012 -0.000014  0.025973
  1C   1py       -0.000042 -0.000211  0.000163 -0.000109  0.000126 -0.007141
  1C   2pz       -0.000588 -0.000655  0.000137 -0.000527  0.000033 -0.010170
  1C   2px        0.001691  0.000025 -0.000025  0.000159  0.000055  0.020807
  1C   2py        0.001390  0.003336 -0.001588  0.001188 -0.001559 -0.008823
  1C   3pz        0.003328  0.000153 -0.000280 -0.000867 -0.001063 -0.006034
  1C   3px       -0.005070 -0.005966  0.004716 -0.000994 -0.001811  0.018901
  1C   3py       -0.001599  0.002427 -0.001296  0.002635 -0.002376 -0.008867
  1C   1dz2      -0.000005  0.000060  0.000028 -0.000003  0.000013 -0.001250
  1C   1dxz      -0.000062  0.000029 -0.000022  0.000018 -0.000025 -0.001619
  1C   1dyz      -0.000036 -0.000027  0.000025 -0.000024 -0.000027  0.000733
  1C   1dx2y2     0.000021  0.000146  0.000023  0.000011 -0.000013 -0.000281
  1C   1dxy       0.000013 -0.000009  0.000035 -0.000063 -0.000014 -0.001283
  1C   2dz2      -0.000334 -0.000872  0.000104 -0.000386 -0.000443 -0.000030
  1C   2dxz      -0.000355 -0.000444 -0.000127 -0.000168  0.000238 -0.001910
  1C   2dyz       0.000161 -0.000218  0.000103  0.000012  0.000475  0.001395
  1C   2dx2y2    -0.000384 -0.001347 -0.000046  0.000140  0.000354  0.001637
  1C   2dxy       0.000209  0.000502 -0.000406  0.000670 -0.000140 -0.003514
  1C   1f0        0.000046 -0.000013  0.000062 -0.000009  0.000027  0.001440
  1C   1f+1       0.000013  0.000017  0.000009 -0.000016 -0.000052  0.000234
  1C   1f-1      -0.000011 -0.000081  0.000114 -0.000049  0.000088 -0.000494
  1C   1f+2      -0.000002 -0.000024 -0.000005 -0.000038 -0.000007 -0.000061
  1C   1f-2       0.000027  0.000032  0.000006 -0.000026  0.000014  0.000392
  1C   1f+3       0.000108 -0.000017  0.000079 -0.000069  0.000072  0.000528
  1C   1f-3      -0.000009  0.000139 -0.000182  0.000076 -0.000049  0.001284
  2H   1s         0.000002  0.000188 -0.000059  0.000003  0.000057  0.019614
  2H   2s        -0.001072  0.000596  0.000417 -0.000326  0.000663  0.018444
  2H   3s        -0.000683 -0.001700  0.001437 -0.000433 -0.000116  0.005588
  2H   1pz       -0.000097  0.000036  0.000015 -0.000050  0.000094  0.001963
  2H   1px        0.000174 -0.000083 -0.000029 -0.000010 -0.000086 -0.002926
  2H   1py       -0.000125  0.000046  0.000018  0.000034  0.000014  0.000345
  3H   1s        -0.000025  0.000072 -0.000057  0.000036  0.000003  0.013342
  3H   2s        -0.001448 -0.001347  0.001091 -0.000685  0.000217  0.016298
  3H   3s        -0.001630 -0.001665  0.001225 -0.000682  0.000279  0.004765
  3H   1pz        0.000288  0.000136 -0.000119  0.000066 -0.000026 -0.002527
  3H   1px       -0.000278  0.000067 -0.000033  0.000010  0.000024 -0.000573
  3H   1py        0.000227  0.000056 -0.000044 -0.000002  0.000004 -0.000896
  4C   1s        -0.465941  0.000000 -0.000000 -0.000001 -0.000000 -0.019917
  4C   2s        -0.603884 -0.000008  0.000004  0.000007  0.000004 -0.041537
  4C   3s        -0.041814 -0.000380  0.000014 -0.000143 -0.000182  0.062515
  4C   4s         0.033685  0.001304 -0.000744  0.000285  0.001166  0.061696
  4C   5s        -0.078785 -0.005678  0.011490 -0.000006 -0.003572  0.036923
  4C   1pz       -0.000382 -0.000029  0.000008 -0.000025 -0.000007  0.007456
  4C   1px        0.000107 -0.000003 -0.000013  0.000023 -0.000024 -0.001677
  4C   1py        0.000608  0.000027  0.000062  0.000028  0.000007 -0.016172
  4C   2pz        0.004190  0.000345 -0.000269  0.000296  0.000178  0.004455
  4C   2px       -0.001050  0.000185  0.000274 -0.000188  0.000187 -0.002076
  4C   2py       -0.004815 -0.000365  0.000317 -0.000284 -0.000392 -0.012684
  4C   3pz       -0.003074 -0.002953  0.001858 -0.001232 -0.001279  0.004658
  4C   3px        0.002025  0.001791 -0.001969  0.000954 -0.000486 -0.001476
  4C   3py        0.012935 -0.003348 -0.001135 -0.001203 -0.000051 -0.008715
  4C   1dz2       0.000011  0.000062  0.000028  0.000014 -0.000006 -0.000810
  4C   1dxz       0.000006  0.000000 -0.000010 -0.000006 -0.000005  0.000042
  4C   1dyz       0.000005 -0.000008  0.000003 -0.000009  0.000000 -0.000799
  4C   1dx2y2     0.000048  0.000092  0.000037  0.000016  0.000001  0.000066
  4C   1dxy       0.000013 -0.000007 -0.000021 -0.000002 -0.000016 -0.000021
  4C   2dz2      -0.002019 -0.000400  0.000026 -0.000173 -0.000042 -0.000976
  4C   2dxz       0.000216  0.000105  0.000110  0.000015  0.000035 -0.000459
  4C   2dyz      -0.001631 -0.000257  0.000234 -0.000118 -0.000095 -0.000578
  4C   2dx2y2     0.001849 -0.000419 -0.000283 -0.000033  0.000204  0.000255
  4C   2dxy      -0.000175 -0.000147  0.000035  0.000049 -0.000061  0.000314
  4C   1f0        0.001089 -0.000071 -0.000001 -0.000009 -0.000016 -0.000801
  4C   1f+1      -0.000122  0.000020 -0.000012  0.000005 -0.000006  0.000176
  4C   1f-1       0.000579 -0.000022 -0.000023  0.000000  0.000020  0.000050
  4C   1f+2       0.000188 -0.000035 -0.000032  0.000003  0.000022  0.000173
  4C   1f-2      -0.000023 -0.000019  0.000004 -0.000001  0.000007 -0.000060
  4C   1f+3      -0.000163  0.000056 -0.000002  0.000002  0.000011  0.000219
  4C   1f-3      -0.000716  0.000084  0.000009  0.000001  0.000014  0.000673
  5C   1s        -0.000038 -0.000002  0.000028 -0.000001 -0.000000 -0.058555
  5C   2s        -0.000158 -0.000183 -0.000018  0.000006  0.000000 -0.122471
  5C   3s         0.001427  0.001986  0.003001  0.000036 -0.000019  0.183195
  5C   4s        -0.006540 -0.005799 -0.007168 -0.000211  0.000179  0.225290
  5C   5s         0.026554  0.029413 -0.017987  0.000575  0.000148 -0.093442
  5C   1pz        0.000113  0.000120  0.000131 -0.000117  0.000012  0.016092
  5C   1px        0.000037 -0.000026 -0.000062  0.000025 -0.000175 -0.000286
  5C   1py        0.000076 -0.000646 -0.000814  0.000041  0.000017 -0.019097
  5C   2pz       -0.001023 -0.000627 -0.001455  0.000794 -0.000095  0.015601
  5C   2px        0.000061 -0.000324  0.000738 -0.000232  0.001216  0.000755
  5C   2py       -0.000844  0.001949  0.008215 -0.000281 -0.000114 -0.022401
  5C   3pz        0.003061  0.008703 -0.006518  0.001970 -0.000433 -0.013689
  5C   3px       -0.000434  0.000184  0.000251  0.000027  0.000377 -0.005378
  5C   3py        0.007424 -0.006211  0.002117 -0.002998 -0.000166 -0.010528
  5C   1dz2      -0.000042 -0.000151  0.000009 -0.000074  0.000008 -0.002335
  5C   1dxz      -0.000023  0.000012 -0.000011  0.000025 -0.000077 -0.000278
  5C   1dyz       0.000080 -0.000092 -0.000005  0.000180  0.000015  0.000218
  5C   1dx2y2    -0.000025 -0.000322  0.000119 -0.000058  0.000009 -0.002117
  5C   1dxy       0.000040  0.000045 -0.000030  0.000008  0.000194  0.000297
  5C   2dz2       0.000380  0.001338  0.002604  0.000140 -0.000165 -0.008851
  5C   2dxz       0.000210 -0.000135  0.000279 -0.000365  0.000842 -0.000944
  5C   2dyz      -0.000661  0.000691  0.001207 -0.001369 -0.000179 -0.001367
  5C   2dx2y2    -0.000101  0.001992  0.003650  0.000357  0.000015 -0.007815
  5C   2dxy      -0.000026 -0.000396 -0.000447 -0.000063 -0.001332  0.001525
  5C   1f0        0.000079  0.000111  0.000140 -0.000049 -0.000010 -0.002779
  5C   1f+1      -0.000020 -0.000091 -0.000000 -0.000004 -0.000006 -0.000916
  5C   1f-1      -0.000023 -0.000447 -0.000312 -0.000025  0.000009  0.001834
  5C   1f+2       0.000006  0.000279  0.000145 -0.000086 -0.000014  0.000079
  5C   1f-2       0.000004 -0.000067 -0.000005  0.000029 -0.000058 -0.000364
  5C   1f+3       0.000014  0.000111  0.000121  0.000019  0.000071 -0.001247
  5C   1f-3       0.000112  0.000604  0.000499  0.000039  0.000002 -0.004108
  6H   1s         0.000045  0.000071 -0.000043  0.000003 -0.000009  0.012336
  6H   2s        -0.000145 -0.000296  0.000531  0.000147  0.000234  0.012658
  6H   3s        -0.001814 -0.000708  0.000693 -0.000036  0.000543  0.002086
  6H   1pz       -0.000188  0.000046 -0.000010  0.000031  0.000022  0.001216
  6H   1px        0.000155 -0.000028  0.000075  0.000009  0.000012  0.001635
  6H   1py        0.000282  0.000010 -0.000038  0.000020 -0.000001 -0.000987
  7H   1s        -0.000050 -0.000023  0.000018 -0.000041  0.000026  0.012205
  7H   2s        -0.000376 -0.000165  0.000179 -0.000053 -0.000567  0.012831
  7H   3s        -0.001041 -0.000166  0.000092  0.000331 -0.000921  0.004218
  7H   1pz        0.000086  0.000044 -0.000007  0.000023  0.000035 -0.001548
  7H   1px        0.000232 -0.000021  0.000012 -0.000001 -0.000046  0.000931
  7H   1py        0.000223 -0.000105 -0.000005 -0.000013  0.000026 -0.001361
  8H   1s         0.000108 -0.000017  0.000003 -0.000008 -0.000035  0.011630
  8H   2s         0.000820  0.000559 -0.000357  0.000418 -0.000322  0.012667
  8H   3s        -0.001159  0.001221 -0.000869  0.000751 -0.000163  0.003314
[...]
      px      :     0.005456
      py      :     0.006517

  8 H s       :     0.896074  s :     0.896074
      pz      :     0.005150  p :     0.021393
      px      :     0.010454
      py      :     0.005789

  9 H s       :     0.910166  s :     0.910166
      pz      :     0.011846  p :     0.021308
      px      :     0.004616
      py      :     0.004846

 10 H s       :     0.885686  s :     0.885686
      pz      :     0.004885  p :     0.021408
      px      :     0.010779
      py      :     0.005745

 11 C s       :     3.189218  s :     3.189218
      pz      :     1.025749  p :     2.939606
      px      :     0.957446
      py      :     0.956411
      dz2     :     0.010480  d :     0.088603
      dxz     :     0.017240
      dyz     :     0.017992
      dx2y2   :     0.017585
      dxy     :     0.025305
      f0      :     0.000335  f :     0.005375
      f+1     :     0.000854
      f-1     :     0.000725
      f+2     :     0.000974
      f-2     :     0.000279
      f+3     :     0.001443
      f-3     :     0.000765

 12 H s       :     0.914863  s :     0.914863
      pz      :     0.011801  p :     0.021213
      px      :     0.004654
      py      :     0.004758

 13 Cls       :     5.917135  s :     5.917135
      pz      :     3.932687  p :    11.198096
      px      :     3.945531
      py      :     3.319878
      dz2     :     0.008158  d :     0.057138
      dxz     :     0.000855
      dyz     :     0.013999
      dx2y2   :     0.020326
      dxy     :     0.013800
      f0      :     0.000413  f :     0.005120
      f+1     :     0.000074
      f-1     :     0.001054
      f+2     :     0.000789
      f-2     :     0.000099
      f+3     :     0.001099
      f-3     :     0.001592

 14 C s       :     3.096903  s :     3.096903
      pz      :     0.995223  p :     2.907808
      px      :     0.989366
      py      :     0.923218
      dz2     :     0.021423  d :     0.091877
      dxz     :     0.006512
      dyz     :     0.017932
      dx2y2   :     0.023812
      dxy     :     0.022199
      f0      :     0.000890  f :     0.005401
      f+1     :     0.000550
      f-1     :     0.000482
      f+2     :     0.000837
      f-2     :     0.000369
      f+3     :     0.001321
      f-3     :     0.000952

 15 H s       :     0.891993  s :     0.891993
      pz      :     0.009152  p :     0.021417
      px      :     0.005491
      py      :     0.006774

 16 H s       :     0.894889  s :     0.894889
      pz      :     0.004804  p :     0.021351
      px      :     0.004827
      py      :     0.011720

 17 H s       :     0.905074  s :     0.905074
      pz      :     0.012813  p :     0.021915
      px      :     0.004906
      py      :     0.004196



                     *******************************
                     * LOEWDIN POPULATION ANALYSIS *
                     *******************************

----------------------
LOEWDIN ATOMIC CHARGES
----------------------
   0 C :   -0.259089
   1 C :   -0.268203
   2 H :    0.136837
   3 H :    0.135909
   4 C :   -0.266957
   5 C :   -0.484124
   6 H :    0.134416
   7 H :    0.135757
   8 H :    0.135004
   9 H :    0.138713
  10 H :    0.137050
  11 C :   -0.268337
  12 H :    0.134097
  13 Cl:    0.303928
  14 C :   -0.258419
  15 H :    0.138214
  16 H :    0.134618
  17 H :    0.140586

-------------------------------
LOEWDIN REDUCED ORBITAL CHARGES
-------------------------------
  0 C s       :     2.779138  s :     2.779138
      pz      :     1.029481  p :     3.046466
      px      :     1.011030
      py      :     1.005955
      dz2     :     0.047855  d :     0.394446
      dxz     :     0.081397
      dyz     :     0.080260
      dx2y2   :     0.091390
      dxy     :     0.093545
      f0      :     0.003182  f :     0.039038
      f+1     :     0.005066
      f-1     :     0.005848
      f+2     :     0.005463
      f-2     :     0.004068
      f+3     :     0.009469
      f-3     :     0.005943

  1 C s       :     2.783582  s :     2.783582
      pz      :     1.024560  p :     3.052420
      px      :     1.004086
      py      :     1.023773
      dz2     :     0.100462  d :     0.393559
      dxz     :     0.034699
      dyz     :     0.071015
      dx2y2   :     0.095994
      dxy     :     0.091391
      f0      :     0.005033  f :     0.038643
      f+1     :     0.003828
      f-1     :     0.004030
      f+2     :     0.007015
      f-2     :     0.005391
      f+3     :     0.007141
      f-3     :     0.006205

  2 H s       :     0.803871  s :     0.803871
      pz      :     0.024195  p :     0.059292
      px      :     0.021044
      py      :     0.014053

  3 H s       :     0.805276  s :     0.805276
      pz      :     0.032309  p :     0.058815
      px      :     0.013334
      py      :     0.013172

  4 C s       :     2.776097  s :     2.776097
      pz      :     1.022995  p :     3.048654
      px      :     1.017389
      py      :     1.008270
      dz2     :     0.112651  d :     0.402867
      dxz     :     0.074311
      dyz     :     0.021835
      dx2y2   :     0.120544
      dxy     :     0.073526
      f0      :     0.004556  f :     0.039340
      f+1     :     0.005675
      f-1     :     0.002767
      f+2     :     0.006170
      f-2     :     0.006461
      f+3     :     0.006973
      f-3     :     0.006738

  5 C s       :     2.808701  s :     2.808701
      pz      :     1.042640  p :     3.017630
      px      :     1.055765
      py      :     0.919225
      dz2     :     0.134905  d :     0.600622
      dxz     :     0.079416
      dyz     :     0.087751
      dx2y2   :     0.168244
      dxy     :     0.130307
      f0      :     0.006073  f :     0.057171
      f+1     :     0.006082
      f-1     :     0.005245
      f+2     :     0.010094
      f-2     :     0.006680
      f+3     :     0.012736
      f-3     :     0.010261

  6 H s       :     0.806572  s :     0.806572
      pz      :     0.023056  p :     0.059012
      px      :     0.022008
      py      :     0.013948

  7 H s       :     0.805206  s :     0.805206
      pz      :     0.027353  p :     0.059037
      px      :     0.014564
      py      :     0.017121

  8 H s       :     0.805881  s :     0.805881
      pz      :     0.015356  p :     0.059115
      px      :     0.028246
      py      :     0.015512

  9 H s       :     0.802110  s :     0.802110
      pz      :     0.032692  p :     0.059177
      px      :     0.013212
      py      :     0.013273

 10 H s       :     0.803574  s :     0.803574
      pz      :     0.014432  p :     0.059376
      px      :     0.029687
      py      :     0.015257

 11 C s       :     2.785945  s :     2.785945
      pz      :     1.032825  p :     3.054444
      px      :     0.995699
      py      :     1.025920
      dz2     :     0.045690  d :     0.389577
      dxz     :     0.084496
      dyz     :     0.077463
      dx2y2   :     0.090159
      dxy     :     0.091769
      f0      :     0.003163  f :     0.038371
      f+1     :     0.005297
      f-1     :     0.005610
      f+2     :     0.005430
      f-2     :     0.004147
      f+3     :     0.009087
      f-3     :     0.005638

 12 H s       :     0.806964  s :     0.806964
      pz      :     0.032196  p :     0.058939
      px      :     0.013183
      py      :     0.013560

 13 Cls       :     5.579471  s :     5.579471
      pz      :     3.866152  p :    11.011849
      px      :     3.857104
      py      :     3.288594
      dz2     :     0.012865  d :     0.094052
      dxz     :     0.001100
      dyz     :     0.023774
      dx2y2   :     0.031771
      dxy     :     0.024543
      f0      :     0.000996  f :     0.010698
      f+1     :     0.000159
      f-1     :     0.001935
      f+2     :     0.001914
      f-2     :     0.000165
      f+3     :     0.002617
      f-3     :     0.002913

 14 C s       :     2.776835  s :     2.776835
      pz      :     1.025687  p :     3.044133
      px      :     1.009621
      py      :     1.008824
      dz2     :     0.101712  d :     0.398105
      dxz     :     0.035338
      dyz     :     0.067899
      dx2y2   :     0.100300
      dxy     :     0.092857
      f0      :     0.005292  f :     0.039346
      f+1     :     0.003339
      f-1     :     0.003906
      f+2     :     0.007380
      f-2     :     0.005337
      f+3     :     0.007779
      f-3     :     0.006314

 15 H s       :     0.802288  s :     0.802288
      pz      :     0.027355  p :     0.059499
      px      :     0.014615
      py      :     0.017528

 16 H s       :     0.806337  s :     0.806337
      pz      :     0.014116  p :     0.059044
      px      :     0.013155
      py      :     0.031773

 17 H s       :     0.799613  s :     0.799613
      pz      :     0.034871  p :     0.059801
      px      :     0.013756
      py      :     0.011174



                      *****************************
                      * MAYER POPULATION ANALYSIS *
                      *****************************

  NA   - Mulliken gross atomic population
  ZA   - Total nuclear charge
  QA   - Mulliken gross atomic charge
  VA   - Mayer's total valence
  BVA  - Mayer's bonded valence
  FA   - Mayer's free valence

  ATOM       NA         ZA         QA         VA         BVA        FA
  0 C      6.1953     6.0000    -0.1953     4.0631     4.0631    -0.0000
  1 C      6.1369     6.0000    -0.1369     4.0089     4.0089    -0.0000
  2 H      0.9141     1.0000     0.0859     0.9761     0.9761     0.0000
  3 H      0.9373     1.0000     0.0627     0.9766     0.9766     0.0000
  4 C      6.1272     6.0000    -0.1272     4.0923     4.0923     0.0000
  5 C      5.8976     6.0000     0.1024     4.1738     4.1738     0.0000
  6 H      0.9178     1.0000     0.0822     0.9685     0.9685    -0.0000
  7 H      0.9227     1.0000     0.0773     0.9727     0.9727    -0.0000
  8 H      0.9175     1.0000     0.0825     0.9689     0.9689     0.0000
  9 H      0.9315     1.0000     0.0685     0.9940     0.9940    -0.0000
 10 H      0.9071     1.0000     0.0929     0.9822     0.9822    -0.0000
 11 C      6.2228     6.0000    -0.2228     4.0328     4.0328     0.0000
 12 H      0.9361     1.0000     0.0639     0.9757     0.9757     0.0000
 13 Cl    17.1775    17.0000    -0.1775     1.1452     1.1452    -0.0000
 14 C      6.1020     6.0000    -0.1020     4.0398     4.0398     0.0000
 15 H      0.9134     1.0000     0.0866     0.9963     0.9963    -0.0000
 16 H      0.9162     1.0000     0.0838     0.9708     0.9708     0.0000
 17 H      0.9270     1.0000     0.0730     0.9805     0.9805     0.0000

  Mayer bond orders larger than 0.100000
B(  0-C ,  1-C ) :   1.0260 B(  0-C ,  4-C ) :   1.0597 B(  0-C ,  6-H ) :   0.9484 
B(  0-C ,  7-H ) :   0.9501 B(  1-C ,  5-C ) :   1.0664 B(  1-C ,  9-H ) :   0.9305 
B(  1-C , 10-H ) :   0.9433 B(  2-H , 11-C ) :   0.9475 B(  3-H , 14-C ) :   0.9361 
B(  4-C , 12-H ) :   0.9350 B(  4-C , 14-C ) :   1.0769 B(  4-C , 16-H ) :   0.9413 
B(  5-C , 11-C ) :   1.0476 B(  5-C , 13-Cl) :   1.0223 B(  5-C , 17-H ) :   0.9418 
B(  8-H , 14-C ) :   0.9382 B( 11-C , 14-C ) :   1.0304 B( 11-C , 15-H ) :   0.9461 


-------
TIMINGS
-------

Total SCF time: 0 days 0 hours 0 min 8 sec 

Total time                  ....       8.938 sec
Sum of individual times     ....       8.277 sec  ( 92.6%)

SCF preparation             ....       0.024 sec  (  0.3%)
Fock matrix formation       ....       8.161 sec  ( 91.3%)
  Startup                   ....       0.001 sec  (  0.0% of F)
  Split-RI-J                ....       2.482 sec  ( 30.4% of F)
  XC integration            ....       6.322 sec  ( 77.5% of F)
    XC Preparation          ....       0.000 sec  (  0.0% of XC)
    Basis function eval.    ....       1.995 sec  ( 31.6% of XC)
    Density eval.           ....       1.202 sec  ( 19.0% of XC)
    XC-Functional eval.     ....       0.133 sec  (  2.1% of XC)
    XC-Potential eval.      ....       2.879 sec  ( 45.5% of XC)
Diagonalization             ....       0.000 sec  (  0.0%)
Density matrix formation    ....       0.007 sec  (  0.1%)
Total Energy calculation    ....       0.007 sec  (  0.1%)
Population analysis         ....       0.004 sec  (  0.0%)
Orbital Transformation      ....       0.011 sec  (  0.1%)
Orbital Orthonormalization  ....       0.000 sec  (  0.0%)
DIIS solution               ....       0.047 sec  (  0.5%)
SOSCF solution              ....       0.015 sec  (  0.2%)
Finished LeanSCF after   9.0 sec

Maximum memory used throughout the entire LEANSCF-calculation: 31.6 MB

-------------------------   --------------------
FINAL SINGLE POINT ENERGY      -695.400496770848
-------------------------   --------------------


------------------------------------------------------------------------------
                              ORCA PROPERTY CALCULATIONS
------------------------------------------------------------------------------

GBWName                                 ... job.gbw
Number of atoms                         ...     18
Number of basis functions               ...    289
Max core memory                         ...  16384 MB

Electric properties:
Dipole moment                           ... YES
Quadrupole moment                       ...  NO
Static polarizability (Dipole/Dipole)   ...  NO
Static polarizability (Dipole/Quad.)    ...  NO
Static polarizability (Quad./Quad.)     ...  NO
Static polarizability (Velocity)        ...  NO
Static hyperpolarizability              ...  NO

Atomic electric properties:
Dipole moment                           ...  NO
Quadrupole moment                       ...  NO
Static polarizability                   ...  NO

Choice of electric origin               ... Center of mass
Position of electric origin             ...    -7.412742     1.460189    -0.125413

General magnetic properties:
Magnetizability                         ...  NO

EPR properties:
g-Tensor (aka g-matrix)                 ...  NO
Zero-Field splitting spin-orbit         ...  NO
Zero-field splitting spin-spin          ...  NO
Hyperfine couplings                     ...  NO (   0 nuclei)
Quadrupole couplings                    ...  NO (   0 nuclei)
Contact density                         ...  NO (   0 nuclei)

NMR properties:
Chemical shifts                         ...  NO (   0 nuclei)
Spin-rotation constants                 ...  NO (   0 nuclei)
Spin-spin couplings                     ...  NO (   0 nuclei,    0 pairs)

Choice of magnetic origin               ... GIAO
Position of magnetic origin             ...     0.000000     0.000000     0.000000

Properties with geometric perturbations:
SCF Hessian                             ...  NO
IR spectrum                             ...  NO
VCD spectrum                            ...  NO
X-ray spectroscopy properties:
SCF XES/XAS/RIXS spectra                ...  NO

SCF SOC stabilization energy            ...  NO
Diagonal Born-Oppenheimer correction    ...  NO

-------------
DIPOLE MOMENT
-------------

Method             : SCF
Type of density    : Electron Density
Multiplicity       :   1
Irrep              :   0
Energy             :  -695.4004967708475533 Eh
Basis              : AO
                                X                 Y                 Z
Electronic contribution:     -1.309904775     -13.885823039      -0.893926372
Nuclear contribution   :      1.383491387      14.764644986       0.852004373
                        -----------------------------------------
Total Dipole Moment    :      0.073586613       0.878821947      -0.041921999
                        -----------------------------------------
Magnitude (a.u.)       :      0.882893232
Magnitude (Debye)      :      2.244136250



--------------------
Rotational spectrum 
--------------------
 
Rotational constants in cm-1:             0.141021             0.046719             0.037874 
Rotational constants in MHz :          4227.707595          1400.609864          1135.444329 

Dipole components along the rotational axes: 
x,y,z [a.u.] :     0.879581     0.001254    -0.076396 
x,y,z [Debye]:     2.235717     0.003186    -0.194183 

 

Dipole moment calculation done in   0.0 sec 

Maximum memory used throughout the entire PROP-calculation: 22.8 MB

--------------------------------
SUGGESTED CITATIONS FOR THIS RUN
--------------------------------

Below you find a list of papers that are relevant to this ORCA run
We neither can nor want to force you to cite these papers, but we appreciate if you do
You receive ORCA, which is the product of decades of hard work by many enthusiastic individuals, for free
The only thing we kindly ask in return is that you cite our papers,
We deeply appreciate it, if you show your appreciation for ORCA by not just citing the generic ORCA reference.

Please note that relegating all ORCA citations to the supporting information does *not* help us.
SI sections are not indexed - citations you put there will not count into any citation statistics
But we need these citations in order to attract the funding resources that allow us to do what we are doing

Therefore, if you are a happy ORCA user, please consider citing a few of the papers listed below in the main body of your paper

In addition to the list printed below, the program has created the file job.bibtex that contains the list in bibtex format
You can import this file easily into all common literature databanks and citation aid programs


List of essential papers. We consider these as the minimum necessary citations

  1. Neese, F.
     Software update: the ORCA program system, version 6.0
     WIRES Comput. Molec. Sci. 2025 15(1), e70019
     doi.org/10.1002/wcms.7019

List of papers to cite with high priority. The work reported in these papers was absolutely
necessary for this run to complete.
Our perspective: the developers of density functionals and basis sets usually get cited in chemistry papers
Good! But without the algorithms to do something with them, the functionals or basis sets would not do anything.
Hence, in our opinion, the algorithm design and method developments papers are equally worthy of getting cited

  1. Neese, F.
     An improvement of the resolution of the identity approximation for the formation of the Coulomb matrix
     J. Comp. Chem. 2003 24(14), 1740-1747
     doi.org/10.1002/jcc.10318
  2. Neese, F.
     The SHARK Integral Generation and Digestion System
     J. Comp. Chem. 2022 44(3), 381
     doi.org/10.1002/jcc.26942

List of suggested additional citations. These are papers that are important in the 'surrounding' of 
of this run, or papers that preceded the highly important papers. If you like your results we are grateful for a citation.

  1. Neese, F.
     The ORCA program system
     WIRES Comput. Molec. Sci. 2012 2(1), 73-78
     doi.org/10.1002/wcms.81
  2. Neese, F.
     Software update: the ORCA program system, version 4.0
     WIRES Comput. Molec. Sci. 2018 8(1), 1-6
     doi.org/10.1002/wcms.1327
  3. Neese, F.; Wennmohs, F.; Becker, U.; Riplinger, C.
     The ORCA quantum chemistry program package
     J. Chem. Phys. 2020 152(22), 224108
     doi.org/10.1063/5.0004608
  4. Neese, F.
     Software update: The ORCA program system—Version 5.0
     WIRES Comput. Molec. Sci. 2022 12(1), e1606
     doi.org/10.1002/wcms.1606

List of optional additional citations

  1. Neese, F.
     Approximate second-order SCF convergence for spin unrestricted wavefunctions
     Chem. Phys. Lett. 2000 325(1-3), 93-98
     doi.org/10.1016/s0009-2614(00)00662-x

Timings for individual modules:

Sum of individual times          ...        9.963 sec (=   0.166 min)
Startup calculation              ...        0.426 sec (=   0.007 min)   4.3 %
SCF iterations                   ...        9.476 sec (=   0.158 min)  95.1 %
Property calculations            ...        0.060 sec (=   0.001 min)   0.6 %
                             ****ORCA TERMINATED NORMALLY****
TOTAL RUN TIME: 0 days 0 hours 0 minutes 10 seconds 26 msec
