
                                 *****************
                                 * O   R   C   A *
                                 *****************

                                            #,                                       
                                            ###                                      
                                            ####                                     
                                            #####                                    
                                            ######                                   
                                           ########,                                 
                                     ,,################,,,,,                         
                               ,,#################################,,                 
                          ,,##########################################,,             
                       ,#########################################, ''#####,          
                    ,#############################################,,   '####,        
                  ,##################################################,,,,####,       
                ,###########''''           ''''###############################       
              ,#####''   ,,,,##########,,,,          '''####'''          '####       
            ,##' ,,,,###########################,,,                        '##       
           ' ,,###''''                  '''############,,,                           
         ,,##''                                '''############,,,,        ,,,,,,###''
      ,#''                                            '''#######################'''  
     '                                                          ''''####''''         
             ,#######,   #######,   ,#######,      ##                                
            ,#'     '#,  ##    ##  ,#'     '#,    #''#        ,####,    ,#,          
            ##       ##  ##   ,#'  ##            #'  '#       #'       ,# #          
            ##       ##  #######   ##           ,######,      #####,      #          
            '#,     ,#'  ##    ##  '#,     ,#' ,#      #,     #,   #      #          
             '#######'   ##     ##  '#######'  #'      '#     '####' #    #          



                #########################################################
                #                        -***-                          #
                #          Department of theory and spectroscopy        #
                #                                                       #
                #                      Frank Neese                      #
                #                                                       #
                #     Directorship, Architecture, Infrastructure        #
                #                    SHARK, DRIVERS                     #
                #        Core code/Algorithms in most modules           #
                #                                                       #
                #        Max Planck Institute fuer Kohlenforschung      #
                #                Kaiser Wilhelm Platz 1                 #
                #                 D-45470 Muelheim/Ruhr                 #
                #                      Germany                          #
                #                                                       #
                #                  All rights reserved                  #
                #                        -***-                          #
                #########################################################


                         Program Version 6.1.0  -  RELEASE   -
                                (GIT: $679e74b7b5$)
                          ($2025-06-10 18:02:51 +0200$)


 With contributions from (in alphabetic order):
[Max-Planck-Institut fuer Kohlenforschung]                               
  Daniel Aravena         : Magnetic Suceptibility                        
  Michael Atanasov       : Ab Initio Ligand Field Theory (pilot matlab implementation)
  Alexander A. Auer      : GIAO ZORA, VPT2 properties, NMR spectrum      
  Ute Becker             : All parallelization in ORCA, NUMFREQ, NUMCALC 
  Giovanni Bistoni       : ED, misc. LED, open-shell LED, HFLD           
  Dmytro Bykov           : pre 5.0 version of the SCF Hessian            
  Marcos Casanova-Páez   : Triplet and SCS-CIS(D). UHF-(DLPNO)-IP/EA/STEOM-CCSD. UHF-CVS-IP/STEOM-CCSD   
  Vijay G. Chilkuri      : MRCI spin determinant printing, contributions to CSF-ICE 
  Pauline Colinet        : FMM embedding                                 
  Dipayan Datta          : RHF DLPNO-CCSD density                        
  Achintya Kumar Dutta   : EOM-CC, STEOM-CC                              
  Nicolas Foglia         : Exact transition moments, OPA infrastructure, MCD improvements    
  Dmitry Ganyushin       : Spin-Orbit,Spin-Spin,Magnetic field MRCI      
  Miquel Garcia-Rates    : C-PCM and meta-GGA Hessian, CCSD/C-PCM, Gaussian charge scheme 
  Tiago L. C. Gouveia    : GS-ROHF, GS-ROCIS                             
  Yang Guo               : DLPNO-NEVPT2, F12-NEVPT2, CIM, IAO-localization        
  Andreas Hansen         : Spin unrestricted coupled pair/coupled cluster methods 
  Ingolf Harden          : AUTO-CI MPn and infrastructure                
  Benjamin Helmich-Paris : MC-RPA, TRAH-(SCF,CASSCF), AVAS, COSX integrals, SCF dyn. polar., MC-PDFT, srDFT 
  Lee Huntington         : MR-EOM, pCC                                   
  Robert Izsak           : Overlap fitted RIJCOSX, COSX-SCS-MP3, EOM     
  Riya Kayal             : Wick's Theorem for AUTO-CI, AUTO-CI UHF-CCSDT 
  Emily Kempfer          : AUTO-CI RHF CISDT and CCSDT, approximate NEVPT4
  Christian Kollmar      : KDIIS, OOCD, Brueckner-CCSD(T), CCSD density, CASPT2, CASPT2-K, improved NEVPT2 
  Axel Koslowski         : Symmetry handling                             
  Simone Kossmann        : meta-GGA functionals, TD-DFT gradient, OOMP2, (MP2 Hessian; deprecated post 5.0) 
  Lucas Lang             : DCDCAS, Hyperfine gauge corrections, ICE-SOC+SSC
  Marvin Lechner         : AUTO-CI (C++ implementation), FIC-MRCC        
  Spencer Leger          : CASSCF response                               
  Dagmar Lenk            : GEPOL surface, SMD, ORCA-2-JSON               
  Dimitrios Liakos       : Extrapolation schemes; Compound Job, Property file
  Dimitrios Manganas     : Further ROCIS development; embedding schemes. LFT, Crystal Embedding 
  Dimitrios Pantazis     : SARC Basis sets                               
  Anastasios Papadopoulos: AUTO-CI, single reference methods and gradients 
  Taras Petrenko         : pre 6.0 DFT Hessian and TD-DFT gradient,  ECA, NRVS 
  Petra Pikulova         : Analytic Raman intensities                    
  Peter Pinski           : DLPNO-MP2, DLPNO-MP2 Gradient                 
  Shashank Vittal Rao    : ES-AILFT, MagRelax                            
  Christoph Reimann      : Effective Core Potentials                     
  Marius Retegan         : Local ZFS, SOC                                
  Christoph Riplinger    : Optimizer, TS searches, QM/MM, DLPNO-CCSD(T), (RO)-DLPNO pert. Triples 
  Michael Roemelt        : Original ROCIS implementation, recursive CI coupling coefficients
  Masaaki Saitow         : Open-shell DLPNO-CCSD energy and density      
  Barbara Sandhoefer     : DKH picture change effects                    
  Yorick L. A. Schmerwitz: GMF and freeze-and-release deltaSCF, NEB S-IDPP initial path                    
  Kantharuban Sivalingam : CASSCF convergence/infrastructure, NEVPT2, NEVPT3, NEVPT4(SD), FIC-MRCI and CEPA variants
  Bernardo de Souza      : ESD, SOC TD-DFT                               
  Georgi L. Stoychev     : AutoAux, RI-MP2 NMR, DLPNO-MP2 response, X2C  
  Van Anh Tran           : RI-MP2 g-tensors                              
  Willem Van den Heuvel  : Paramagnetic NMR                              
  Zikuan Wang            : NOTCH, Electric field optimization            
  Frank Wennmohs         : Technical directorship and infrastructure     
  Hang Xu                : AUTO-CI-Response properties                   
                                                                         
[FACCTs GmbH]                                                            
  Markus Bursch, Nicolas Foglia, Miquel Garcia-Rates, Ingolf Harden, Hagen Neugebauer, Anastasios Papadopoulos, 
  Christoph Riplinger, Bernardo de Souza, Georgi L. Stoychev                                                    
                                                                 
  APM, various basis sets, CI-OPT, improved COSX, DLPNO-Multilevel,           
  DOCKER, DRACO, updates on ESD, Fragmentator, GOAT, IRC, LR-CPCM, L-BFGS, MBIS, meta-GGA TD-DFT gradient, ML-optimized integration grids, 
  MM, NACMEs, nearIR, NEB, NEB-TS, NL-DFT gradient (VV10), 2- and 3-layer-ONIOM, interface openCOSMO-RS, QMMM,   
  Crystal-QMMM, RESP, rigid body optimization, SF, symmetry and pop. for TD-DFT, various functionals, SOLVATOR                                   
                                                                         
[Other institutions]                                                     
  V. Asgeirsson          : NEB                                           
  Christoph Bannwarth    : sTDA-DFT, sTD-DFT, PBEh-3c, B97-3c, D3        
  Giovanni Bistoni       : ETS/NOCV, ADLD/ADEX, COVALED                  
  Martin Brehm           : Molecular dynamics                            
  Ronald Cardenas        : ETS/NOCV                                      
  Martina Colucci        : COVALED                                       
  Sebastian Ehlert       : rSCAN, r2SCAN, r2SCAN-3c, D4, dhf basis sets  
  Marvin Friede          : D4 for Fr, Ra, Ac-Lr                          
  Lars Goerigk           : TD-DFT with DH, B97 family of functionals     
  Stefan Grimme          : VdW corrections, initial TS optimization, DFT functionals, gCP, sTDA/sTD-DF 
  Waldemar Hujo          : DFT-NL                                        
  H. Jonsson             : NEB                                           
  Holger Kruse           : gCP                                           
  Marcel Mueller         : wB97X-3c, vDZP basis set                      
  Hagen Neugebauer       : wr2SCAN, Native XTB                           
  Gianluca Regni         : ADLD/ADEX                                     
  Tobias Risthaus        : pre 6.0 range-separated hybrid DFT and stability analysis
  Lukas Wittmann         : regularized MP2, r2SCAN double-hybrids, wr2SCAN        
                                                                         
We gratefully acknowledge several colleagues who have allowed us to      
interface, adapt or use parts of their codes:                            
  Ed Valeev, F. Pavosevic, A. Kumar             : LibInt (2-el integral package), F12 methods 
  Garnet Chan, S. Sharma, J. Yang, R. Olivares  : DMRG                   
  Ulf Ekstrom                                   : XCFun DFT Library      
  Mihaly Kallay                                 : mrcc  (arbitrary order and MRCC methods)
  Frank Weinhold                                : gennbo (NPA and NBO analysis)           
  Simon Mueller                                 : openCOSMO-RS                            
  Christopher J. Cramer and Donald G. Truhlar   : smd solvation model                     
  S Lehtola, MJT Oliveira, MAL Marques          : LibXC Library                           
  Liviu Ungur et al                             : ANISO software                          


 Your calculation uses the libint2 library for the computation of 2-el integrals
 For citations please refer to: http://libint.valeyev.net

 Your ORCA version has been built with support for libXC version: 7.0.0
 For citations please refer to: https://libxc.gitlab.io

 This ORCA versions uses:
   CBLAS   interface :  Fast vector & matrix operations
   LAPACKE interface :  Fast linear algebra routines
   SCALAPACK package :  Parallel linear algebra routines
   Shared memory     :  Shared parallel matrices


  ***********************************
  * Starting time: Wed Jul  9 19:17:53 2025
  * Host name:     MacBook-Air-3.local
  * Process ID:    76074
  * Working dir.:  /Users/blenl/Desktop/Folders/Projects/DFT2/others/bromine/single_point
  ***********************************

NOTE: MaxCore=16384 MB was set to SCF,MP2,MDCI,CIPSI,MRCI,RASCI and CIS
      => If you want to overwrite this, your respective input block should be placed after the MaxCore statement
Warning: RI is on but no J-basis has been assigned. Assigning Def2/J (nothing to worry about!)
================================================================================

----- Orbital basis set information -----
Your calculation utilizes the basis: def2-TZVP
   F. Weigend and R. Ahlrichs, Phys. Chem. Chem. Phys. 7, 3297 (2005).

----- AuxJ basis set information -----
Your calculation utilizes the auxiliary basis: def2/J
   H-Rn: F. Weigend, Phys. Chem. Chem. Phys. 8, 1057 (2006).
   Fr-Lr: K. Eichkorn, F. Weigend, O. Treutler, R. Ahlrichs; Theor. Chem. Acc. 97, 119 (1997).

================================================================================
                                        WARNINGS
                       Please study these warnings very carefully!
================================================================================


WARNING: your system is open-shell and RHF/RKS was chosen
  ===> : WILL SWITCH to UHF/UKS


================================================================================
                                       INPUT FILE
================================================================================
NAME = job.inp
|  1> # avogadro generated ORCA file
|  2> # C6H6Br | Single Point | revPBE/def2-TZVP
|  3> # 
|  4> ! SP revPBE def2-TZVP 
|  5> 
|  6> %maxcore 16384
|  7> 
|  8> %pal
|  9>    nprocs 1
| 10> end
| 11> %output
| 12>   Print[P_Basis] 2
| 13>   Print[P_MOs] 1
| 14> end
| 15> * xyz 0 2
| 16>    C     -3.346978    1.955738   -0.074315
| 17>    C     -3.467506    0.571847    0.043749
| 18>    H     -1.994706    3.632295   -0.158427
| 19>    C     -2.314737   -0.227170    0.182727
| 20>    C     -2.084376    2.550031   -0.066971
| 21>    Br    -2.392775   -1.922516   -0.943868
| 22>    H     -0.141353   -0.225272    0.247065
| 23>    H     -2.408643   -0.840405    1.111568
| 24>    C     -0.934757    1.766139    0.044124
| 25>    H      0.046359    2.237256    0.037891
| 26>    H     -4.237647    2.574032   -0.172460
| 27>    C     -1.043915    0.381370    0.162749
| 28>    H     -4.457180    0.114000    0.035153
| 29> *
| 30> 
| 31> 
| 32> 
| 33>                          ****END OF INPUT****
================================================================================

                       ****************************
                       * Single Point Calculation *
                       ****************************

---------------------------------
CARTESIAN COORDINATES (ANGSTROEM)
---------------------------------
  C     -3.346978    1.955738   -0.074315
  C     -3.467506    0.571847    0.043749
  H     -1.994706    3.632295   -0.158427
  C     -2.314737   -0.227170    0.182727
  C     -2.084376    2.550031   -0.066971
  Br    -2.392775   -1.922516   -0.943868
  H     -0.141353   -0.225272    0.247065
  H     -2.408643   -0.840405    1.111568
  C     -0.934757    1.766139    0.044124
  H      0.046359    2.237256    0.037891
  H     -4.237647    2.574032   -0.172460
  C     -1.043915    0.381370    0.162749
  H     -4.457180    0.114000    0.035153

----------------------------
CARTESIAN COORDINATES (A.U.)
----------------------------
  NO LB      ZA    FRAG     MASS         X           Y           Z
   0 C     6.0000    0    12.011   -6.324872    3.695809   -0.140435
   1 C     6.0000    0    12.011   -6.552637    1.080634    0.082674
   2 H     1.0000    0     1.008   -3.769448    6.864043   -0.299384
   3 C     6.0000    0    12.011   -4.374219   -0.429289    0.345304
   4 C     6.0000    0    12.011   -3.938900    4.818860   -0.126557
   5 Br   35.0000    0    79.900   -4.521689   -3.633029   -1.783652
   6 H     1.0000    0     1.008   -0.267118   -0.425702    0.466885
   7 H     1.0000    0     1.008   -4.551676   -1.588135    2.100559
   8 C     6.0000    0    12.011   -1.766435    3.337519    0.083382
   9 H     1.0000    0     1.008    0.087606    4.227801    0.071604
  10 H     1.0000    0     1.008   -8.007992    4.864216   -0.325902
  11 C     6.0000    0    12.011   -1.972713    0.720685    0.307551
  12 H     1.0000    0     1.008   -8.422850    0.215429    0.066430

--------------------------------
INTERNAL COORDINATES (ANGSTROEM)
--------------------------------
 C      0   0   0     0.000000000000     0.00000000     0.00000000
 C      1   0   0     1.394137872221     0.00000000     0.00000000
 H      1   2   0     2.155587568339   146.05722142     0.00000000
 C      2   1   3     1.409474873183   120.02419882     0.51868069
 C      3   1   2     1.089816624269    34.18027910     0.10235074
 Br     4   2   1     2.037033206206   112.70185048   222.43389212
 H      4   2   1     2.174336908601   145.07834896   357.18891777
 H      4   2   1     1.116969608066   108.93329257   124.19916720
 C      5   3   1     1.395869840583   119.77545065   179.39917168
 H      9   5   3     1.088383518542   119.92562349   359.92673054
 H      1   2   3     1.088674046270   120.04392597   180.04470567
 C      7   4   2     1.090752890376    34.01346217     2.04916709
 H      2   1   3     1.090482642182   119.64107247   180.07594861

---------------------------
INTERNAL COORDINATES (A.U.)
---------------------------
 C      0   0   0     0.000000000000     0.00000000     0.00000000
 C      1   0   0     2.634538771425     0.00000000     0.00000000
 H      1   2   0     4.073470161846   146.05722142     0.00000000
 C      2   1   3     2.663521502959   120.02419882     0.51868069
 C      3   1   2     2.059454956062    34.18027910     0.10235074
 Br     4   2   1     3.849434885432   112.70185048   222.43389212
 H      4   2   1     4.108901280133   145.07834896   357.18891777
 H      4   2   1     2.110766659157   108.93329257   124.19916720
 C      5   3   1     2.637811717303   119.77545065   179.39917168
 H      9   5   3     2.056746778718   119.92562349   359.92673054
 H      1   2   3     2.057295796558   120.04392597   180.04470567
 C      7   4   2     2.061224242594    34.01346217     2.04916709
 H      2   1   3     2.060713547519   119.64107247   180.07594861

---------------------
BASIS SET INFORMATION
---------------------
There are 3 groups of distinct atoms

 Group   1 Type C   : 11s6p2d1f contracted to 5s3p2d1f pattern {62111/411/11/1}
 Group   2 Type H   : 5s1p contracted to 3s1p pattern {311/1}
 Group   3 Type Br  : 17s13p8d1f contracted to 6s5p4d1f pattern {842111/64111/5111/1}

Atom   0C    basis set group =>   1
Atom   1C    basis set group =>   1
Atom   2H    basis set group =>   2
Atom   3C    basis set group =>   1
Atom   4C    basis set group =>   1
Atom   5Br   basis set group =>   3
Atom   6H    basis set group =>   2
Atom   7H    basis set group =>   2
Atom   8C    basis set group =>   1
Atom   9H    basis set group =>   2
Atom  10H    basis set group =>   2
Atom  11C    basis set group =>   1
Atom  12H    basis set group =>   2

-------------------------
BASIS SET IN INPUT FORMAT
-------------------------

 # Basis set for element : H 
 NewGTO H 
 S 3 
   1      34.0613410000      0.0254393072
   2       5.1235746000      0.1900859489
   3       1.1646626000      0.8524411301
 S 1 
   1       0.3272304100      1.0000000000
 S 1 
   1       0.1030724100      1.0000000000
 P 1 
   1       0.8000000000      1.0000000000
  end;

 # Basis set for element : C 
 NewGTO C 
 S 6 
   1   13575.3496820000      0.0006064549
   2    2035.2333680000      0.0046979088
   3     463.2256235900      0.0243324776
   4     131.2001959800      0.0973999683
   5      42.8530158910      0.3019558425
   6      15.5841857660      0.6623360915
 S 2 
   1       6.2067138508      0.6559530854
   2       2.5764896527      0.3758563329
 S 1 
   1       0.5769633942      1.0000000000
 S 1 
   1       0.2297283136      1.0000000000
 S 1 
   1       0.0951644400      1.0000000000
 P 4 
   1      34.6972322440      0.0113272200
   2       7.9582622826      0.0761696592
   3       2.3780826883      0.3019225220
   4       0.8143320818      0.7278502735
 P 1 
   1       0.2888754725      1.0000000000
 P 1 
   1       0.1005682367      1.0000000000
 D 1 
   1       1.0970000000      1.0000000000
 D 1 
   1       0.3180000000      1.0000000000
 F 1 
   1       0.7610000000      1.0000000000
  end;

 # Basis set for element : Br
 NewGTO Br
 S 8 
   1  565073.2525600001      0.0002313996
   2   84701.7231790000      0.0017944809
   3   19276.2719000000      0.0093366328
   4    5456.4284576000      0.0380221412
   5    1776.9503500000      0.1243860819
   6     639.1939827600      0.2976826546
   7     248.7882396100      0.4351247870
   8      98.6783054940      0.2384543263
 S 4 
   1     606.0782456800     -0.0258029981
   2     188.4559848400     -0.1214377016
   3      31.4971445060      0.5492715415
   4      13.7360083200      0.5403867431
 S 2 
   1      21.2032127660     -0.4189765706
   2       3.7616420178      1.1962922020
 S 1 
   1       1.7735933962      1.0000000000
 S 1 
   1       0.4519741366      1.0000000000
 S 1 
   1       0.1661337710      1.0000000000
 P 6 
   1    3019.6955723000      0.0026978967
   2     715.3548112600      0.0220611771
   3     229.9832875100      0.1046886297
   4      86.1678446150      0.3030971016
   5      34.6678708020      0.4819318191
   6      14.1138703070      0.2637288336
 P 4 
   1      57.0856530820     -0.0192881876
   2       8.8193845840      0.2886445949
   3       3.9340302872      0.5105806350
   4       1.7998830384      0.2962687446
 P 1 
   1       0.6689941051      1.0000000000
 P 1 
   1       0.2713623823      1.0000000000
 P 1 
   1       0.1008379024      1.0000000000
 D 5 
   1     168.8537025700      0.0098428277
   2      49.9779499190      0.0681283771
   3      18.2749133380      0.2357380147
   4       7.2455694631      0.4427795439
   5       2.8562315025      0.4633455553
 D 1 
   1       1.0459621144      1.0000000000
 D 1 
   1       0.5686565500      1.0000000000
 D 1 
   1       0.2203149000      1.0000000000
 F 1 
   1       0.5708331200      1.0000000000
  end;

---------------------------------
AUXILIARY/J BASIS SET INFORMATION
---------------------------------
There are 3 groups of distinct atoms

 Group   1 Type C   : 12s5p4d2f1g contracted to 6s4p3d1f1g pattern {711111/2111/211/2/1}
 Group   2 Type H   : 5s2p1d contracted to 3s1p1d pattern {311/2/1}
 Group   3 Type Br  : 19s5p5d3f1g contracted to 8s4p3d2f1g pattern {121111111/2111/311/21/1}

Atom   0C    basis set group =>   1
Atom   1C    basis set group =>   1
Atom   2H    basis set group =>   2
Atom   3C    basis set group =>   1
Atom   4C    basis set group =>   1
Atom   5Br   basis set group =>   3
Atom   6H    basis set group =>   2
Atom   7H    basis set group =>   2
Atom   8C    basis set group =>   1
Atom   9H    basis set group =>   2
Atom  10H    basis set group =>   2
Atom  11C    basis set group =>   1
Atom  12H    basis set group =>   2

-------------------------------------
AUXILIARY/J BASIS SET IN INPUT FORMAT
-------------------------------------

 # Auxiliary/J basis set for element : H 
 NewAuxJGTO H 
 S 3 
   1      15.6752927000      0.1007184237
   2       3.6063578000      0.3404257499
   3       1.2080016000      0.6491996172
 S 1 
   1       0.4726794000      1.0000000000
 S 1 
   1       0.2018100000      1.0000000000
 P 2 
   1       2.0281365000      0.5596620919
   2       0.5358730000      0.5596620919
 D 1 
   1       2.2165124000      1.0000000000
  end;

 # Auxiliary/J basis set for element : C 
 NewAuxJGTO C 
 S 7 
   1    1861.0916331000      0.0134602335
   2     642.9939764000      0.0299160374
   3     235.1105725000      0.1008649584
   4      90.7028894000      0.2370970548
   5      36.7794552000      0.3924037254
   6      15.6046273000      0.3195862154
   7       6.8907294000      0.0530104441
 S 1 
   1       3.1478850000     -1.0000000000
 S 1 
   1       1.4777287000      1.0000000000
 S 1 
   1       0.7076466000      1.0000000000
 S 1 
   1       0.3430122000      1.0000000000
 S 1 
   1       0.1669453000      1.0000000000
 P 2 
   1      13.5472892000     -0.6769313712
   2       5.4669419000     -0.3779500978
 P 1 
   1       2.1751721000      1.0000000000
 P 1 
   1       0.8582194000      1.0000000000
 P 1 
   1       0.3376720000      1.0000000000
 D 2 
   1       5.9287253000     -0.3533329857
   2       1.9809209000     -0.7456525731
 D 1 
   1       0.8055417000     -1.0000000000
 D 1 
   1       0.3531244000     -1.0000000000
 F 2 
   1       1.6755626000      0.6311076882
   2       0.5997536000      0.4968166032
 G 1 
   1       1.0024600000     -1.0000000000
  end;

 # Auxiliary/J basis set for element : Br
 NewAuxJGTO Br
 S 12 
   1  181929.6907400000      0.0098592173
   2   21782.5062350000      0.0318437281
   3    7843.2391724000      0.1122124522
   4    2608.0271777000      0.2508709127
   5    1564.9696465000      0.1250956596
   6     920.5703545000      0.2502284057
   7     552.3963380000      0.1652736279
   8     191.1405907000     -0.0323762454
   9     108.0484426000      0.0526271009
  10      64.8354183000      0.2625580338
  11      38.1384803000      0.1582655532
  12      22.4343995000     -0.0934263273
 S 1 
   1      13.1967052000     -1.0000000000
 S 1 
   1       7.9187991000      1.0000000000
 S 1 
   1       4.6581170000      1.0000000000
 S 1 
   1       2.6331523000      1.0000000000
 S 1 
   1       0.5577180000      1.0000000000
 S 1 
   1       0.3152683000      1.0000000000
 S 1 
   1       0.1854519000      1.0000000000
 P 2 
   1       8.4481854000      0.4423986813
   2       3.0812881000     -1.2802496903
 P 1 
   1       1.1536778000      1.0000000000
 P 1 
   1       0.4389478000     -1.0000000000
 P 1 
   1       0.1679158000      1.0000000000
 D 3 
   1       8.7933629000     -1.3793406808
   2       3.5598266000      1.4275368284
   3       1.4866514000     -1.1228999981
 D 1 
   1       0.6328484000     -1.0000000000
 D 1 
   1       0.2711415000     -1.0000000000
 F 2 
   1       3.4681858000     -0.2539003863
   2       0.8708007000      1.0653068211
 F 1 
   1       0.2186427000      1.0000000000
 G 1 
   1       1.1078575000     -1.0000000000
  end;

------------------------------------------------------------------------------
                             ORCA STARTUP CALCULATIONS
                           -- RI-GTO INTEGRALS CHOSEN --
------------------------------------------------------------------------------
------------------------------------------------------------------------------
                   ___                                                        
                  /   \      - P O W E R E D   B Y -                         
                 /     \                                                     
                 |  |  |   _    _      __       _____    __    __             
                 |  |  |  | |  | |    /  \     |  _  \  |  |  /  |          
                  \  \/   | |  | |   /    \    | | | |  |  | /  /          
                 / \  \   | |__| |  /  /\  \   | |_| |  |  |/  /          
                |  |  |   |  __  | /  /__\  \  |    /   |      \           
                |  |  |   | |  | | |   __   |  |    \   |  |\   \          
                \     /   | |  | | |  |  |  |  | |\  \  |  | \   \       
                 \___/    |_|  |_| |__|  |__|  |_| \__\ |__|  \__/        
                                                                              
                      - O R C A' S   B I G   F R I E N D -                    
                                      &                                       
                       - I N T E G R A L  F E E D E R -                       
                                                                              
 v1 FN, 2020, v2 2021, v3 2022-2024                                           
------------------------------------------------------------------------------


----------------------
SHARK INTEGRAL PACKAGE
----------------------

Number of atoms                             ...     13
Number of basis functions                   ...    270
Number of shells                            ...    106
Maximum angular momentum                    ...      3
Integral batch strategy                     ... SHARK/LIBINT Hybrid
RI-J (if used) integral strategy            ... SPLIT-RIJ (Revised 2003 algorithm where possible)
Printlevel                                  ...      1
Contraction scheme used                     ... SEGMENTED contraction
Prescreening option                         ... SCHWARTZ
   Thresh                                   ... 1.000e-10
   Tcut                                     ... 1.000e-11
   Tpresel                                  ... 1.000e-11 
Coulomb Range Separation                    ... NOT USED
Exchange Range Separation                   ... NOT USED
Multipole approximations                    ... NOT USED
Finite Nucleus Model                        ... NOT USED
CABS basis                                  ... NOT available
Auxiliary Coulomb fitting basis             ... AVAILABLE
   # of basis functions in Aux-J            ...    418
   # of shells in Aux-J                     ...    138
   Maximum angular momentum in Aux-J        ...      4
Auxiliary J/K fitting basis                 ... NOT available
Auxiliary Correlation fitting basis         ... NOT available
Auxiliary 'external' fitting basis          ... NOT available

Checking pre-screening integrals            ... done (  0.0 sec) Dimension = 106
   => SHARK Basis and OBASIS are compatible. Storing Pre-screening
Shell pair information
Shell pair cut-off parameter TPreSel        ...   1.0e-11
Total number of shell pairs                 ...      5671
Shell pairs after pre-screening             ...      5234
Total number of primitive shell pairs       ...     19326
Primitive shell pairs kept                  ...     13146
          la=0 lb=0:   1306 shell pairs
          la=1 lb=0:   1448 shell pairs
          la=1 lb=1:    417 shell pairs
          la=2 lb=0:    797 shell pairs
          la=2 lb=1:    444 shell pairs
          la=2 lb=2:    130 shell pairs
          la=3 lb=0:    359 shell pairs
          la=3 lb=1:    196 shell pairs
          la=3 lb=2:    109 shell pairs
          la=3 lb=3:     28 shell pairs

Checking whether 4 symmetric matrices of dimension 270 fit in memory
:Max Core in MB      =  16384.00
 MB in use           =      8.83
 MB left             =  16375.17
 MB needed           =      1.12
 Data fit in memory  = YES
Calculating RI/J V-Matrix + Cholesky decomp.... done (  0.0 sec)
Calculating Nuclear repulsion               ... done (  0.0 sec) ENN=    444.102327091346 Eh

Diagonalization of the overlap matrix:
Smallest eigenvalue                        ... 1.243e-05
Time for diagonalization                   ...    0.004 sec
Threshold for overlap eigenvalues          ... 1.000e-07
Number of eigenvalues below threshold      ... 0
Time for construction of square roots      ...    0.001 sec
Total time needed                          ...    0.005 sec

-------------------
DFT GRID GENERATION
-------------------

General Integration Accuracy     IntAcc      ... 4.388
Radial Grid Type                 RadialGrid  ... OptM3 with GC (2021)
Angular Grid (max. ang.)         AngularGrid ... 4 (Lebedev-302)
Angular grid pruning method      GridPruning ... 4 (adaptive)
Weight generation scheme         WeightScheme... mBecke (2022)
Basis function cutoff            BFCut       ... 1.0000e-10
Integration weight cutoff        WCut        ... 1.0000e-14
Partially contracted basis set               ... off
Rotationally invariant grid construction     ... off
Angular grids for H and He will be reduced by one unit
Core-polarized basis detected: some atoms will have their core
                               angular grid increased.

Total number of grid points                  ...    66728
Total number of batches                      ...     1048
Average number of points per batch           ...       63
Average number of grid points per atom       ...     5133
Grids setup in   0.3 sec
Initializing property integral containers    ... done (  0.0 sec)

SHARK setup successfully completed in   0.4 seconds

Maximum memory used throughout the entire STARTUP-calculation: 42.6 MB
-------------------------------------------------------------------------------
                                 ORCA GUESS
                   Start orbitals & Density for SCF / CASSCF
-------------------------------------------------------------------------------

------------
SCF SETTINGS
------------
Hamiltonian:
 Density Functional     Method          .... DFT(GTOs)
 Exchange Functional    Exchange        .... PBE
   PBE kappa parameter   XKappa         ....  1.245000
   PBE mue parameter    XMuePBE         ....  0.219520
 Correlation Functional Correlation     .... PBE
   PBE beta parameter  CBetaPBE         ....  0.066725
 LDA part of GGA corr.  LDAOpt          .... PW91-LDA
 Gradients option       PostSCFGGA      .... off
   NL short-range parameter             ....  3.700000
 RI-approximation to the Coulomb term is turned on
   Number of AuxJ basis functions       .... 418


General Settings:
 Integral files         IntName         .... job
 Hartree-Fock type      HFTyp           .... UHF
 Total Charge           Charge          ....    0
 Multiplicity           Mult            ....    2
 Number of Electrons    NEL             ....   77
 Basis Dimension        Dim             ....  270
 Nuclear Repulsion      ENuc            ....    444.1023270913 Eh

Convergence Acceleration:
 AO-DIIS                CNVDIIS         .... on
   Start iteration      DIISMaxIt       ....    12
   Startup error        DIISStart       ....  0.200000
   # of expansion vecs  DIISMaxEq       ....     5
   Bias factor          DIISBfac        ....   1.050
   Max. coefficient     DIISMaxC        ....  10.000
 MO-DIIS                CNVKDIIS        .... off
 Trust-Rad. Augm. Hess. CNVTRAH         .... auto
   Auto Start mean grad. ratio tolernc. ....  1.125000
   Auto Start start iteration           ....    50
   Auto Start num. interpolation iter.  ....    10
   Max. Number of Micro iterations      ....    24
   Max. Number of Macro iterations      .... Maxiter - #DIIS iter
   Number of Davidson start vectors     ....     2
   Converg. threshold    (grad. norm)   ....   5.000e-05
   Grad. Scal. Fac. for Micro threshold ....   0.100
   Minimum threshold for Micro iter.    ....   1.000e-02
   NR start threshold (gradient norm)   ....   1.000e-04
   Initial trust radius                 ....   0.400
   Minimum AH scaling param. (alpha)    ....   1.000
   Maximum AH scaling param. (alpha)    .... 1000.000
   Quad. conv. algorithm                .... NR
   White noise on init. David. guess    .... on
   Maximum white noise                  ....   0.010
   Pseudo random numbers                .... off
   Inactive MOs                         .... canonical
   Orbital update algorithm             .... Taylor
   Preconditioner                       .... Diag
   Full preconditioner red. dimension   ....   250
 SOSCF                 CNVSOSCF           .... on
   Start iteration     SOSCFMaxIt         ....   150
   Startup grad/error  SOSCFStart         ....  0.003300
   Hessian update      SOSCFHessUp        .... L-BFGS
   Autom. constraints  SOSCFAutoConstrain .... off
 Level Shifting         CNVShift        .... on
   Level shift para.    LevelShift      ....    0.2500
   Turn off err/grad.   ShiftErr        ....    0.0010
 Zerner damping         CNVZerner       .... off
 Static damping         CNVDamp         .... on
   Fraction old density DampFac         ....    0.7000
   Max. Damping (<1)    DampMax         ....    0.9800
   Min. Damping (>=0)   DampMin         ....    0.0000
   Turn off err/grad.   DampErr         ....    0.1000

SCF Procedure:
 Maximum # iterations   MaxIter         ....   125
 SCF integral mode      SCFMode         .... Direct
   Integral package                     .... SHARK and LIBINT hybrid scheme
 Reset frequency        DirectResetFreq ....    20
 Integral Threshold     Thresh          ....  1.000e-10 Eh
 Primitive CutOff       TCut            ....  1.000e-11 Eh

Convergence Tolerance:
 Convergence Check Mode ConvCheckMode   .... Total+1el-Energy
 Convergence forced     ConvForced      .... 0
 Energy Change          TolE            ....  1.000e-06 Eh
 1-El. energy change                    ....  1.000e-03 Eh
 Orbital Gradient       TolG            ....  5.000e-05
 Orbital Rotation angle TolX            ....  5.000e-05
 DIIS Error             TolErr          ....  1.000e-06

------------------------------
INITIAL GUESS: MODEL POTENTIAL
------------------------------
Loading Hartree-Fock densities                     ... done
Calculating cut-offs                               ... done
Initializing the effective Hamiltonian             ... done
Setting up the integral package (SHARK)            ... done
Starting the Coulomb interaction                   ... done (   0.1 sec)
Making the grid                                    ... done (   0.1 sec)
Mapping shells                                     ... done
Starting the XC term evaluation                    ... done (   0.2 sec)
  promolecular density results
     # of electrons  =     76.996786058
     EX              =   -122.123473118
     EC              =     -3.101270602
     EX+EC           =   -125.224743720
Transforming the Hamiltonian                       ... done (   0.0 sec)
Diagonalizing the Hamiltonian                      ... done (   0.0 sec)
Back transforming the eigenvectors                 ... done (   0.0 sec)
Now organizing SCF variables                       ... done
                      ------------------
                      INITIAL GUESS DONE (   0.4 sec)
                      ------------------
             **** ENERGY FILE WAS UPDATED (job.en.tmp) ****
Finished Guess after   0.4 sec
Maximum memory used throughout the entire GUESS-calculation: 23.9 MB

-------------------------------------------------------------------------------------------
                                      ORCA LEAN-SCF
                              memory conserving SCF solver
-------------------------------------------------------------------------------------------

----------------------------------------D-I-I-S--------------------------------------------
Iteration    Energy (Eh)           Delta-E    RMSDP     MaxDP     DIISErr   Damp  Time(sec)
-------------------------------------------------------------------------------------------
               ***  Starting incremental Fock matrix formation  ***
    1    -2806.0099930979977216     0.00e+00  6.31e-04  1.19e-02  6.86e-02  0.700   1.1
Warning: op=1 Small HOMO/LUMO gap (   0.080) - skipping pre-diagonalization
         Will do a full diagonalization
    2    -2806.0757098826488800    -6.57e-02  4.84e-04  1.13e-02  3.06e-02  0.700   1.0
                               ***Turning on AO-DIIS***
    3    -2806.0977210508071948    -2.20e-02  2.44e-04  6.66e-03  1.05e-02  0.700   1.0
    4    -2806.1106374033379325    -1.29e-02  5.74e-04  1.41e-02  6.96e-03  0.000   0.9
                              *** Initializing SOSCF ***
---------------------------------------S-O-S-C-F--------------------------------------
Iteration    Energy (Eh)           Delta-E    RMSDP     MaxDP     MaxGrad    Time(sec)
--------------------------------------------------------------------------------------
    5    -2806.1413082257431597    -3.07e-02  1.61e-04  4.52e-03  3.29e-03     1.0
               *** Restarting incremental Fock matrix formation ***
    6    -2806.1418120985799760    -5.04e-04  1.38e-04  4.07e-03  2.43e-03     1.1
    7    -2806.1418658997554303    -5.38e-05  9.87e-05  2.67e-03  2.86e-03     0.9
    8    -2806.1419379139406374    -7.20e-05  8.56e-05  2.51e-03  1.24e-03     0.9
    9    -2806.1419583490824152    -2.04e-05  3.43e-05  8.71e-04  6.58e-04     0.8
   10    -2806.1419637994104050    -5.45e-06  3.07e-05  8.92e-04  3.91e-04     0.8
   11    -2806.1419697748515318    -5.98e-06  5.34e-06  2.27e-04  1.79e-04     0.8
   12    -2806.1419700424048642    -2.68e-07  6.23e-06  1.98e-04  1.21e-04     0.8
                 **** Energy Check signals convergence ****

               *****************************************************
               *                     SUCCESS                       *
               *           SCF CONVERGED AFTER  12 CYCLES          *
               *****************************************************

             **** ENERGY FILE WAS UPDATED (job.en.tmp) ****

----------------
TOTAL SCF ENERGY
----------------

Total Energy       :      -2806.14197055884779 Eh          -76359.00504 eV

Components:
Nuclear Repulsion  :        444.10232709134584 Eh           12084.63869 eV
Electronic Energy  :      -3250.24429765019340 Eh          -88443.64373 eV
One Electron Energy:      -4777.32186084760360 Eh         -129997.53678 eV
Two Electron Energy:       1527.07756319741020 Eh           41553.89305 eV

Virial components:
Potential Energy   :      -5607.64901488598844 Eh         -152591.88732 eV
Kinetic Energy     :       2801.50704432714065 Eh           76232.88228 eV
Virial Ratio       :          2.00165444032743

DFT components:
N(Alpha)           :       39.000022199927 electrons
N(Beta)            :       38.000015943498 electrons
N(Total)           :       77.000038143425 electrons
E(X)               :     -122.771305172240 Eh       
E(C)               :       -3.100184634526 Eh       
E(XC)              :     -125.871489806766 Eh       

---------------
SCF CONVERGENCE
---------------

  Last Energy change         ...    2.6755e-07  Tolerance :   1.0000e-06
  Last MAX-Density change    ...    1.9828e-04  Tolerance :   1.0000e-05
  Last RMS-Density change    ...    6.2265e-06  Tolerance :   1.0000e-06
  Last DIIS Error            ...    3.2889e-03  Tolerance :   1.0000e-06
  Last Orbital Gradient      ...    1.2148e-04  Tolerance :   5.0000e-05
  Last Orbital Rotation      ...    2.2654e-04  Tolerance :   5.0000e-05


----------------------
UHF SPIN CONTAMINATION
----------------------

Warning: in a DFT calculation there is little theoretical justification to 
         calculate <S**2> as in Hartree-Fock theory. We will do it anyways
         but you should keep in mind that the values have only limited relevance

Expectation value of <S**2>     :     0.766557
Ideal value S*(S+1) for S=0.5   :     0.750000
Deviation                       :     0.016557

----------------
ORBITAL ENERGIES
----------------
                 SPIN UP ORBITALS
  NO   OCC          E(Eh)            E(eV) 
   0   1.0000    -481.015151    -13089.0877 
   1   1.0000     -61.794819     -1681.5225 
   2   1.0000     -55.699958     -1515.6729 
   3   1.0000     -55.696435     -1515.5770 
   4   1.0000     -55.696342     -1515.5745 
   5   1.0000      -9.952232      -270.8140 
   6   1.0000      -9.917071      -269.8572 
   7   1.0000      -9.917056      -269.8568 
   8   1.0000      -9.914471      -269.7865 
   9   1.0000      -9.912830      -269.7418 
  10   1.0000      -9.912780      -269.7405 
  11   1.0000      -8.391372      -228.3409 
  12   1.0000      -6.266879      -170.5304 
  13   1.0000      -6.254413      -170.1912 
  14   1.0000      -6.254024      -170.1806 
  15   1.0000      -2.466509       -67.1171 
  16   1.0000      -2.463553       -67.0367 
  17   1.0000      -2.463274       -67.0291 
  18   1.0000      -2.453763       -66.7703 
  19   1.0000      -2.453761       -66.7702 
  20   1.0000      -0.810183       -22.0462 
  21   1.0000      -0.730469       -19.8771 
  22   1.0000      -0.696113       -18.9422 
  23   1.0000      -0.663373       -18.0513 
  24   1.0000      -0.565701       -15.3935 
  25   1.0000      -0.561997       -15.2927 
  26   1.0000      -0.486362       -13.2346 
  27   1.0000      -0.434621       -11.8266 
  28   1.0000      -0.422487       -11.4964 
  29   1.0000      -0.402726       -10.9587 
  30   1.0000      -0.390278       -10.6200 
  31   1.0000      -0.377605       -10.2751 
  32   1.0000      -0.320502        -8.7213 
  33   1.0000      -0.319002        -8.6805 
  34   1.0000      -0.306348        -8.3362 
  35   1.0000      -0.259496        -7.0612 
  36   1.0000      -0.235728        -6.4145 
  37   1.0000      -0.234260        -6.3745 
  38   1.0000      -0.166807        -4.5390 
  39   0.0000      -0.061893        -1.6842 
  40   0.0000      -0.041639        -1.1330 
  41   0.0000       0.016058         0.4370 
  42   0.0000       0.035329         0.9613 
  43   0.0000       0.052267         1.4223 
  44   0.0000       0.067773         1.8442 
  45   0.0000       0.070837         1.9276 
  46   0.0000       0.084402         2.2967 
  47   0.0000       0.091021         2.4768 
  48   0.0000       0.133511         3.6330 
  49   0.0000       0.142736         3.8840 

                 SPIN DOWN ORBITALS
  NO   OCC          E(Eh)            E(eV) 
   0   1.0000    -481.014606    -13089.0729 
   1   1.0000     -61.794537     -1681.5148 
   2   1.0000     -55.698928     -1515.6449 
   3   1.0000     -55.696180     -1515.5701 
   4   1.0000     -55.696087     -1515.5676 
   5   1.0000      -9.952580      -270.8235 
   6   1.0000      -9.914274      -269.7811 
   7   1.0000      -9.914265      -269.7809 
   8   1.0000      -9.912999      -269.7464 
   9   1.0000      -9.912993      -269.7462 
  10   1.0000      -9.909839      -269.6604 
  11   1.0000      -8.390666      -228.3216 
  12   1.0000      -6.265295      -170.4873 
  13   1.0000      -6.253994      -170.1798 
  14   1.0000      -6.253615      -170.1695 
  15   1.0000      -2.464705       -67.0680 
  16   1.0000      -2.462129       -66.9979 
  17   1.0000      -2.461868       -66.9908 
  18   1.0000      -2.453453       -66.7618 
  19   1.0000      -2.453451       -66.7618 
  20   1.0000      -0.804426       -21.8895 
  21   1.0000      -0.724868       -19.7247 
  22   1.0000      -0.691114       -18.8062 
  23   1.0000      -0.655021       -17.8240 
  24   1.0000      -0.562347       -15.3022 
  25   1.0000      -0.555769       -15.1233 
  26   1.0000      -0.483412       -13.1543 
  27   1.0000      -0.428855       -11.6697 
  28   1.0000      -0.419837       -11.4244 
  29   1.0000      -0.397487       -10.8162 
  30   1.0000      -0.388806       -10.5800 
  31   1.0000      -0.370297       -10.0763 
  32   1.0000      -0.318785        -8.6746 
  33   1.0000      -0.314227        -8.5505 
  34   1.0000      -0.295815        -8.0495 
  35   1.0000      -0.249415        -6.7869 
  36   1.0000      -0.230810        -6.2807 
  37   1.0000      -0.230722        -6.2783 
  38   0.0000      -0.138962        -3.7814 
  39   0.0000      -0.051359        -1.3976 
  40   0.0000      -0.033023        -0.8986 
  41   0.0000       0.020562         0.5595 
  42   0.0000       0.038939         1.0596 
  43   0.0000       0.052456         1.4274 
  44   0.0000       0.070882         1.9288 
  45   0.0000       0.080338         2.1861 
  46   0.0000       0.086080         2.3423 
  47   0.0000       0.092750         2.5239 
  48   0.0000       0.137403         3.7389 
*Only the first 10 virtual orbitals were printed.
------------------
MOLECULAR ORBITALS (UHF)
------------------
                      0         1         2         3         4         5   
                 -481.01515 -61.79482 -55.69996 -55.69643 -55.69634  -9.95223
                   1.00000   1.00000   1.00000   1.00000   1.00000   1.00000
                  --------  --------  --------  --------  --------  --------
  0C   1s        -0.000000 -0.000000  0.000001  0.000000  0.000002  0.000059
  0C   2s         0.000000  0.000001 -0.000002 -0.000002 -0.000006  0.000023
  0C   3s         0.000014  0.000065 -0.000300 -0.000061 -0.000120 -0.000146
  0C   4s        -0.000141 -0.000683  0.002492  0.000500  0.000845  0.006406
  0C   5s        -0.000112 -0.000433  0.008685  0.000991 -0.012423 -0.022099
  0C   1pz       -0.000005 -0.000026  0.000026 -0.000013 -0.000011 -0.000013
  0C   1px        0.000001  0.000003 -0.000017  0.000002 -0.000002  0.000124
  0C   1py       -0.000006 -0.000029  0.000062 -0.000005 -0.000012  0.000196
  0C   2pz        0.000035  0.000197 -0.000034  0.000095  0.000071  0.000858
  0C   2px        0.000011  0.000074  0.000265  0.000072  0.000210 -0.001427
  0C   2py        0.000138  0.000707 -0.001830 -0.000121  0.000061 -0.008639
  0C   3pz       -0.000015 -0.000076  0.000262  0.000068 -0.000364 -0.000460
  0C   3px       -0.000140 -0.000695  0.004088 -0.000509 -0.003801 -0.009819
  0C   3py       -0.000027 -0.000193 -0.001589 -0.001033  0.003169  0.003373
  0C   1dz2       0.000002  0.000011 -0.000020 -0.000002 -0.000012 -0.000103
  0C   1dxz       0.000002  0.000012 -0.000001 -0.000002  0.000008  0.000017
  0C   1dyz       0.000000 -0.000000 -0.000014  0.000001 -0.000002 -0.000006
  0C   1dx2y2     0.000002  0.000011 -0.000032 -0.000004 -0.000001  0.000016
  0C   1dxy      -0.000002 -0.000011  0.000020 -0.000002 -0.000003 -0.000055
  0C   2dz2       0.000015  0.000069 -0.000317 -0.000062 -0.000091 -0.000082
  0C   2dxz      -0.000005 -0.000029 -0.000002  0.000001  0.000006 -0.000042
  0C   2dyz      -0.000026 -0.000144  0.000088 -0.000086 -0.000060 -0.000536
  0C   2dx2y2     0.000040  0.000207 -0.000456 -0.000034  0.000084 -0.003290
  0C   2dxy       0.000007  0.000041  0.000042  0.000111 -0.000089 -0.000908
  0C   1f0       -0.000005 -0.000027  0.000025 -0.000014 -0.000009 -0.000029
  0C   1f+1       0.000001  0.000003 -0.000021 -0.000004 -0.000001  0.000072
  0C   1f-1      -0.000005 -0.000026  0.000058 -0.000006 -0.000004  0.000182
  0C   1f+2      -0.000007 -0.000037  0.000029 -0.000023 -0.000014 -0.000048
  0C   1f-2       0.000001  0.000004 -0.000014  0.000002 -0.000007 -0.000011
  0C   1f+3      -0.000001 -0.000003  0.000012 -0.000003 -0.000012  0.000049
  0C   1f-3       0.000002  0.000009 -0.000023 -0.000015 -0.000019  0.000051
  1C   1s        -0.000001 -0.000003  0.000006 -0.000001  0.000004 -0.002072
  1C   2s         0.000002  0.000010 -0.000023  0.000005 -0.000015 -0.002905
  1C   3s        -0.000048 -0.000231  0.000875 -0.000025  0.000257  0.000226
  1C   4s         0.000266  0.001298 -0.004560 -0.000300 -0.001200 -0.007591
  1C   5s         0.000539  0.002724 -0.013271  0.001195  0.013625  0.040946
  1C   1pz        0.000001  0.000005 -0.000004  0.000015  0.000019 -0.000079
  1C   1px        0.000001  0.000005  0.000043  0.000003  0.000011 -0.000175
  1C   1py        0.000000  0.000000 -0.000001  0.000009  0.000024  0.000446
  1C   2pz       -0.000039 -0.000213  0.000136 -0.000230 -0.000108  0.000916
  1C   2px        0.000038  0.000149 -0.001494 -0.000209 -0.000111  0.003820
  1C   2py        0.000039  0.000200 -0.000546 -0.000227 -0.000196 -0.009737
  1C   3pz        0.000006  0.000035 -0.000001  0.000190 -0.000424  0.000780
  1C   3px        0.000299  0.001530 -0.006278  0.000997  0.004923  0.015645
  1C   3py       -0.000158 -0.000894  0.000150 -0.002012  0.002668 -0.002225
  1C   1dz2      -0.000002 -0.000012  0.000013  0.000006  0.000016 -0.000230
  1C   1dxz       0.000002  0.000009 -0.000016 -0.000005  0.000026  0.000021
  1C   1dyz       0.000012  0.000064 -0.000045  0.000020  0.000004  0.000011
  1C   1dx2y2    -0.000002 -0.000014 -0.000004 -0.000015 -0.000004  0.000129
  1C   1dxy      -0.000002 -0.000008  0.000042 -0.000005  0.000008 -0.000273
  1C   2dz2      -0.000020 -0.000083  0.000681  0.000008  0.000118 -0.000072
  1C   2dxz      -0.000021 -0.000120  0.000005 -0.000114 -0.000129  0.000373
  1C   2dyz      -0.000066 -0.000358  0.000335  0.000013 -0.000015 -0.000291
  1C   2dx2y2    -0.000056 -0.000296  0.000527  0.000097 -0.000267  0.003427
  1C   2dxy      -0.000005 -0.000016  0.000270  0.000089 -0.000224 -0.005061
  1C   1f0        0.000003  0.000018 -0.000016  0.000023  0.000017 -0.000145
  1C   1f+1       0.000003  0.000017  0.000041  0.000008  0.000010 -0.000645
  1C   1f-1      -0.000001 -0.000003  0.000002  0.000025 -0.000011  0.000544
  1C   1f+2       0.000006  0.000030 -0.000084  0.000020  0.000013 -0.000041
  1C   1f-2       0.000000  0.000003 -0.000021  0.000028  0.000014 -0.000225
  1C   1f+3       0.000006  0.000030 -0.000058  0.000006  0.000023  0.000215
  1C   1f-3       0.000003  0.000012 -0.000067 -0.000019 -0.000032  0.000840
  2H   1s        -0.000001 -0.000007  0.000017 -0.000000 -0.000002  0.000135
  2H   2s        -0.000012 -0.000067 -0.000005 -0.000000  0.000363  0.001159
  2H   3s        -0.000006 -0.000045 -0.000514 -0.000000  0.000794  0.000538
  2H   1pz       -0.000004 -0.000020  0.000011  0.000000  0.000000  0.000010
  2H   1px        0.000000  0.000002 -0.000000  0.000001 -0.000005 -0.000017
  2H   1py        0.000001  0.000008  0.000003 -0.000000 -0.000058 -0.000206
  3C   1s        -0.000003 -0.000012 -0.000012 -0.000000 -0.000001 -0.467991
  3C   2s         0.000007  0.000037  0.000051  0.000000  0.000005 -0.606497
  3C   3s         0.000019  0.000045 -0.001651  0.000000 -0.000170 -0.042453
  3C   4s         0.000003  0.000251  0.005279 -0.000000  0.000957  0.017416
  3C   5s        -0.002204 -0.011811  0.025814  0.000005 -0.013158 -0.074774
  3C   1pz        0.000004  0.000027  0.000187 -0.000001 -0.000042  0.000721
  3C   1px        0.000000  0.000002  0.000004 -0.000026  0.000002 -0.000034
  3C   1py        0.000007  0.000044  0.000170  0.000002  0.000003  0.000032
  3C   2pz        0.000003 -0.000017 -0.001116 -0.000011  0.000230 -0.004037
  3C   2px        0.000004  0.000024  0.000044 -0.000214  0.000012 -0.000306
  3C   2py        0.000048  0.000288 -0.000170  0.000017  0.000298 -0.005977
  3C   3pz        0.000112  0.000602 -0.000930  0.000149  0.001820 -0.000152
  3C   3px        0.000012  0.000076  0.000265  0.003045 -0.000499 -0.000977
  3C   3py        0.000223  0.001332  0.002789 -0.000237 -0.005213 -0.012457
  3C   1dz2      -0.000001 -0.000004  0.000010  0.000006  0.000031  0.000841
  3C   1dxz      -0.000000 -0.000001 -0.000001  0.000068  0.000003 -0.000078
  3C   1dyz      -0.000012 -0.000065 -0.000011 -0.000004  0.000027  0.000181
  3C   1dx2y2     0.000012  0.000070  0.000015  0.000001  0.000059 -0.000414
  3C   1dxy      -0.000001 -0.000008 -0.000002  0.000028 -0.000011  0.000056
  3C   2dz2       0.000009  0.000021 -0.000776 -0.000034 -0.000242 -0.000973
  3C   2dxz      -0.000001 -0.000002  0.000111 -0.000399 -0.000022  0.000250
  3C   2dyz       0.000023  0.000146  0.000680  0.000017 -0.000228  0.003537
  3C   2dx2y2    -0.000042 -0.000235 -0.000177 -0.000025 -0.000487 -0.002284
  3C   2dxy       0.000006  0.000030 -0.000005 -0.000283  0.000088  0.000175
  3C   1f0       -0.000002 -0.000003  0.000114  0.000004 -0.000015 -0.000160
  3C   1f+1       0.000001  0.000007 -0.000020  0.000032  0.000001  0.000134
  3C   1f-1       0.000001 -0.000000 -0.000138 -0.000002  0.000012  0.000696
  3C   1f+2       0.000014  0.000084  0.000060 -0.000002 -0.000019  0.000731
  3C   1f-2      -0.000002 -0.000013  0.000013  0.000012  0.000005 -0.000213
  3C   1f+3       0.000001  0.000003 -0.000042  0.000025 -0.000011  0.000205
  3C   1f-3       0.000000 -0.000010 -0.000188 -0.000005 -0.000041  0.000660
  4C   1s        -0.000001 -0.000002  0.000005 -0.000000  0.000001  0.000112
  4C   2s         0.000002  0.000008 -0.000017  0.000000 -0.000005  0.000022
  4C   3s        -0.000011 -0.000048  0.000232 -0.000000  0.000203  0.000311
  4C   4s        -0.000019 -0.000153 -0.000723  0.000000 -0.001156  0.006227
  4C   5s         0.000289  0.001400 -0.010245 -0.000001  0.010985  0.025744
  4C   1pz        0.000000  0.000001  0.000005 -0.000000 -0.000005  0.000019
  4C   1px        0.000000  0.000000 -0.000002 -0.000005 -0.000001 -0.000009
  4C   1py        0.000001  0.000002 -0.000022  0.000000 -0.000011 -0.000099
  4C   2pz        0.000002  0.000009 -0.000029  0.000015  0.000024  0.000223
  4C   2px        0.000001  0.000008  0.000022  0.000299  0.000013 -0.000241
  4C   2py        0.000017  0.000114  0.000269 -0.000024  0.000188 -0.003099
  4C   3pz        0.000005  0.000022 -0.000206 -0.000040  0.000258  0.000449
  4C   3px       -0.000003 -0.000013  0.000274 -0.000812 -0.000362 -0.000616
  4C   3py       -0.000039 -0.000147  0.003353  0.000065 -0.004440 -0.007557
  4C   1dz2       0.000001  0.000007 -0.000009  0.000000  0.000012 -0.000114
  4C   1dxz      -0.000000 -0.000002  0.000001  0.000003 -0.000002  0.000008
  4C   1dyz      -0.000003 -0.000014  0.000003 -0.000001 -0.000007 -0.000031
  4C   1dx2y2    -0.000001 -0.000007  0.000004 -0.000001 -0.000005  0.000007
  4C   1dxy       0.000000  0.000002 -0.000001 -0.000007  0.000001  0.000000
  4C   2dz2      -0.000003 -0.000007  0.000148 -0.000001  0.000134 -0.000443
  4C   2dxz       0.000000  0.000001 -0.000013 -0.000007 -0.000002  0.000125
  4C   2dyz       0.000010  0.000056 -0.000026 -0.000002  0.000053  0.000118
  4C   2dx2y2    -0.000013 -0.000074  0.000030 -0.000009  0.000112  0.001552
  4C   2dxy       0.000002  0.000009 -0.000003 -0.000057 -0.000020 -0.000256
  4C   1f0        0.000001  0.000003 -0.000002 -0.000001 -0.000004 -0.000019
  4C   1f+1      -0.000000 -0.000000 -0.000001 -0.000008  0.000001  0.000011
  4C   1f-1      -0.000000 -0.000002 -0.000015  0.000000  0.000005  0.000098
  4C   1f+2       0.000000  0.000001  0.000002  0.000001 -0.000002  0.000009
  4C   1f-2       0.000000  0.000000  0.000001 -0.000003  0.000002 -0.000015
  4C   1f+3      -0.000000 -0.000000 -0.000001 -0.000010 -0.000009  0.000022
  4C   1f-3      -0.000000 -0.000002 -0.000004  0.000002 -0.000036  0.000092
  5Br  1s         0.997382  0.325884 -0.000118 -0.000000  0.000001 -0.000007
  5Br  2s         0.007486 -1.039968  0.000511 -0.000000 -0.000008 -0.000032
  5Br  3s        -0.003761 -0.051402  0.000314 -0.000000 -0.000009 -0.000131
  5Br  4s         0.003272  0.024369 -0.000794  0.000000  0.000024  0.000265
  5Br  5s        -0.001512 -0.008808  0.002454 -0.000000 -0.000067  0.001010
  5Br  6s         0.001256  0.006982 -0.005418  0.000000  0.000101 -0.001829
  5Br  1pz       -0.000001 -0.000236 -0.571498 -0.048283 -0.811093  0.000010
  5Br  1px       -0.000000 -0.000016 -0.035824 -0.989185  0.084130  0.000000
  5Br  1py       -0.000002 -0.000344 -0.811688  0.077654  0.567360  0.000011
  5Br  2pz        0.000008  0.000024 -0.010429 -0.000871 -0.014625 -0.000042
  5Br  2px        0.000001  0.000002 -0.000655 -0.017842  0.001518 -0.000002
  5Br  2py        0.000012  0.000036 -0.014827  0.001401  0.010241 -0.000048
  5Br  3pz       -0.000041 -0.000201  0.004377  0.000316  0.005291  0.000581
  5Br  3px       -0.000003 -0.000014  0.000280  0.006474 -0.000553  0.000031
  5Br  3py       -0.000062 -0.000300  0.006292 -0.000508 -0.003751  0.000762
  5Br  4pz        0.000076  0.000371 -0.004024 -0.000211 -0.003512 -0.002021
  5Br  4px        0.000005  0.000025 -0.000267 -0.004335  0.000372 -0.000117
  5Br  4py        0.000112  0.000544 -0.005911  0.000340  0.002555 -0.002754
  5Br  5pz        0.000194  0.001083  0.000250  0.000071  0.000959 -0.000581
  5Br  5px        0.000012  0.000067  0.000009  0.001459 -0.000097 -0.000000
  5Br  5py        0.000275  0.001534  0.000270 -0.000115 -0.000643 -0.000370
  5Br  1dz2      -0.000000  0.000000  0.000006 -0.000002 -0.000028  0.000001
  5Br  1dxz      -0.000000 -0.000003 -0.000004 -0.000019  0.000001 -0.000001
  5Br  1dyz      -0.000004 -0.000071 -0.000069 -0.000000 -0.000013 -0.000017
  5Br  1dx2y2     0.000003  0.000052  0.000044 -0.000005 -0.000017  0.000013
  5Br  1dxy      -0.000000 -0.000005 -0.000004 -0.000039  0.000003 -0.000001
  5Br  2dz2       0.000002  0.000009 -0.000041  0.000001  0.000029 -0.000014
  5Br  2dxz       0.000001  0.000009  0.000018  0.000015  0.000000  0.000012
  5Br  2dyz       0.000036  0.000249  0.000286  0.000004  0.000023  0.000275
  5Br  2dx2y2    -0.000030 -0.000198 -0.000160  0.000017  0.000017 -0.000226
  5Br  2dxy       0.000003  0.000019  0.000011  0.000110 -0.000004  0.000022
  5Br  3dz2      -0.000003 -0.000015  0.000067  0.000001  0.000013  0.000041
  5Br  3dxz      -0.000003 -0.000018 -0.000024  0.000009 -0.000002 -0.000025
  5Br  3dyz      -0.000079 -0.000485 -0.000317 -0.000008 -0.000020 -0.000624
  5Br  3dx2y2     0.000064  0.000384  0.000144 -0.000024  0.000007  0.000560
  5Br  3dxy      -0.000006 -0.000037 -0.000007 -0.000147 -0.000000 -0.000058
  5Br  4dz2       0.000004  0.000021 -0.000025 -0.000011 -0.000278  0.000025
  5Br  4dxz       0.000006  0.000032 -0.000040 -0.000133  0.000010 -0.000106
  5Br  4dyz       0.000147  0.000806 -0.001095  0.000009 -0.000071 -0.002007
  5Br  4dx2y2    -0.000111 -0.000605  0.000884  0.000003 -0.000158  0.001103
  5Br  4dxy       0.000010  0.000056 -0.000086 -0.000023  0.000029 -0.000075
  5Br  1f0       -0.000006 -0.000028  0.000197 -0.000003 -0.000047  0.000334
  5Br  1f+1       0.000001  0.000003 -0.000010 -0.000024 -0.000002 -0.000012
  5Br  1f-1       0.000005  0.000024 -0.000164 -0.000003 -0.000101 -0.000251
  5Br  1f+2      -0.000008 -0.000036  0.000337 -0.000004  0.000009  0.000617
  5Br  1f-2       0.000001  0.000002 -0.000027 -0.000064  0.000004 -0.000063
  5Br  1f+3       0.000001  0.000004 -0.000031 -0.000062  0.000010 -0.000020
  5Br  1f-3       0.000006  0.000028 -0.000214  0.000011  0.000038 -0.000242
  6H   1s        -0.000004 -0.000022  0.000033  0.000010 -0.000005 -0.000047
  6H   2s         0.000015  0.000080 -0.000182  0.000205  0.000516  0.001861
  6H   3s         0.000069  0.000346 -0.001501 -0.000291  0.001059  0.001228
  6H   1pz       -0.000010 -0.000054  0.000042  0.000026 -0.000018 -0.000052
  6H   1px        0.000001  0.000004  0.000003 -0.000005 -0.000064 -0.000540
  6H   1py        0.000001  0.000006 -0.000038  0.000018  0.000043 -0.000295
  7H   1s        -0.000005 -0.000024  0.000067 -0.000000 -0.000048  0.000605
  7H   2s         0.000152  0.000824 -0.000963  0.000000 -0.000313  0.004387
  7H   3s         0.000296  0.001627 -0.002114  0.000001 -0.001089  0.005185
  7H   1pz       -0.000009 -0.000042  0.000152 -0.000001  0.000106 -0.001662
  7H   1px        0.000001  0.000006 -0.000003 -0.000021  0.000001  0.000204
  7H   1py        0.000009  0.000049  0.000054  0.000002  0.000079  0.001552
  8C   1s        -0.000000 -0.000000  0.000001 -0.000000  0.000002  0.000059
  8C   2s         0.000000  0.000001 -0.000002  0.000002 -0.000006  0.000023
  8C   3s         0.000014  0.000065 -0.000300  0.000062 -0.000120 -0.000147
  8C   4s        -0.000141 -0.000682  0.002490 -0.000501  0.000845  0.006418
  8C   5s        -0.000112 -0.000431  0.008679 -0.000987 -0.012419 -0.022083
  8C   1pz       -0.000005 -0.000026  0.000028  0.000013 -0.000011 -0.000023
  8C   1px       -0.000001 -0.000005  0.000024  0.000001  0.000001 -0.000090
  8C   1py       -0.000005 -0.000029  0.000059  0.000005 -0.000012  0.000214
  8C   2pz        0.000035  0.000194 -0.000073 -0.000086  0.000050  0.000930
  8C   2px        0.000007  0.000019 -0.000543  0.000099 -0.000204 -0.000024
  8C   2py        0.000138  0.000711 -0.001765  0.000108  0.000094 -0.008776
  8C   3pz       -0.000001 -0.000009 -0.000149 -0.000109  0.000033  0.000524
  8C   3px        0.000135  0.000661 -0.004292 -0.000334  0.004267  0.010225
  8C   3py       -0.000049 -0.000300 -0.000931  0.001098  0.002536  0.001796
  8C   1dz2       0.000002  0.000009 -0.000020  0.000002 -0.000013 -0.000104
  8C   1dxz      -0.000002 -0.000012 -0.000002 -0.000002 -0.000006  0.000003
  8C   1dyz       0.000001  0.000003 -0.000016 -0.000001 -0.000000  0.000000
  8C   1dx2y2     0.000003  0.000015 -0.000036  0.000004  0.000000  0.000033
  8C   1dxy       0.000001  0.000006 -0.000008 -0.000003  0.000003  0.000047
  8C   2dz2       0.000015  0.000072 -0.000315  0.000063 -0.000091 -0.000108
  8C   2dxz       0.000002  0.000012  0.000025  0.000010  0.000011 -0.000320
  8C   2dyz      -0.000028 -0.000154  0.000089  0.000095 -0.000052 -0.000374
  8C   2dx2y2     0.000036  0.000184 -0.000449  0.000065  0.000109 -0.002835
  8C   2dxy      -0.000016 -0.000088  0.000093  0.000086  0.000064  0.001935
  8C   1f0       -0.000005 -0.000028  0.000031  0.000014 -0.000009 -0.000043
  8C   1f+1      -0.000001 -0.000006  0.000028 -0.000003  0.000000 -0.000041
  8C   1f-1      -0.000005 -0.000025  0.000055  0.000006 -0.000002  0.000192
  8C   1f+2      -0.000007 -0.000035  0.000029  0.000022 -0.000012 -0.000035
  8C   1f-2       0.000002  0.000011 -0.000001 -0.000008  0.000014 -0.000013
  8C   1f+3       0.000001  0.000002 -0.000017  0.000007  0.000000 -0.000024
  8C   1f-3       0.000002  0.000008 -0.000015  0.000014 -0.000021  0.000069
  9H   1s        -0.000001 -0.000006  0.000005  0.000000  0.000008  0.000171
  9H   2s        -0.000010 -0.000052  0.000286 -0.000021 -0.000300  0.000632
  9H   3s        -0.000020 -0.000093  0.000900 -0.000021 -0.000967 -0.002121
  9H   1pz       -0.000000 -0.000002 -0.000005 -0.000006 -0.000005  0.000021
  9H   1px        0.000002  0.000008 -0.000047  0.000003  0.000044 -0.000121
  9H   1py        0.000002  0.000011 -0.000028 -0.000008  0.000012 -0.000260
 10H   1s        -0.000001 -0.000006  0.000005 -0.000000  0.000008  0.000172
 10H   2s        -0.000010 -0.000052  0.000286  0.000021 -0.000300  0.000633
 10H   3s        -0.000020 -0.000093  0.000898  0.000021 -0.000965 -0.002118
 10H   1pz       -0.000000 -0.000002 -0.000001  0.000006 -0.000009  0.000030
 10H   1px       -0.000001 -0.000006  0.000042  0.000004 -0.000041  0.000077
 10H   1py        0.000002  0.000012 -0.000035  0.000008  0.000019 -0.000275
 11C   1s        -0.000001 -0.000003  0.000006  0.000001  0.000004 -0.002078
 11C   2s         0.000002  0.000010 -0.000023 -0.000005 -0.000015 -0.002913
 11C   3s        -0.000048 -0.000231  0.000875  0.000025  0.000257  0.000223
 11C   4s         0.000266  0.001297 -0.004563  0.000301 -0.001199 -0.007563
 11C   5s         0.000539  0.002725 -0.013278 -0.001204  0.013630  0.040966
 11C   1pz        0.000001  0.000005 -0.000008 -0.000015  0.000018 -0.000058
 11C   1px       -0.000001 -0.000005 -0.000042  0.000003 -0.000009  0.000249
 11C   1py        0.000000  0.000001  0.000005 -0.000010  0.000026  0.000413
 11C   2pz       -0.000042 -0.000225  0.000277  0.000210 -0.000098  0.000467
 11C   2px       -0.000027 -0.000094  0.001372 -0.000192  0.000090 -0.005400
 11C   2py        0.000044  0.000219 -0.000768  0.000259 -0.000211 -0.009054
 11C   3pz       -0.000024 -0.000121  0.000611 -0.000076 -0.000881 -0.000763
 11C   3px       -0.000319 -0.001647  0.006196  0.001315 -0.004382 -0.015806
 11C   3py       -0.000110 -0.000646 -0.000829  0.001829  0.003399  0.000237
 11C   1dz2      -0.000003 -0.000013  0.000015 -0.000007  0.000012 -0.000229
 11C   1dxz       0.000000  0.000002  0.000005 -0.000005 -0.000028  0.000039
 11C   1dyz       0.000012  0.000066 -0.000051 -0.000020  0.000008  0.000034
 11C   1dx2y2    -0.000002 -0.000012 -0.000017  0.000013 -0.000004  0.000206
 11C   1dxy       0.000001  0.000006 -0.000034 -0.000008 -0.000008  0.000218
 11C   2dz2      -0.000017 -0.000068  0.000679 -0.000028  0.000136 -0.000106
 11C   2dxz       0.000008  0.000047 -0.000023 -0.000119  0.000083  0.000044
 11C   2dyz      -0.000067 -0.000363  0.000301  0.000015 -0.000005  0.000174
 11C   2dx2y2    -0.000052 -0.000279  0.000413 -0.000053 -0.000195  0.004855
 11C   2dxy       0.000029  0.000142 -0.000452  0.000113  0.000299  0.003772
 11C   1f0        0.000003  0.000014 -0.000027 -0.000021  0.000014  0.000021
 11C   1f+1      -0.000003 -0.000016 -0.000047  0.000007 -0.000013  0.000731
 11C   1f-1      -0.000000 -0.000002  0.000015 -0.000021 -0.000011  0.000459
 11C   1f+2       0.000006  0.000033 -0.000069 -0.000012  0.000014 -0.000102
 11C   1f-2      -0.000003 -0.000014  0.000054  0.000035 -0.000013  0.000063
 11C   1f+3      -0.000003 -0.000018  0.000013  0.000013 -0.000034  0.000186
 11C   1f-3       0.000005  0.000022 -0.000080  0.000019 -0.000019  0.000864
 12H   1s        -0.000004 -0.000022  0.000033 -0.000010 -0.000005 -0.000048
 12H   2s         0.000015  0.000080 -0.000182 -0.000206  0.000516  0.001860
 12H   3s         0.000069  0.000346 -0.001502  0.000290  0.001060  0.001231
 12H   1pz       -0.000010 -0.000054  0.000041 -0.000026 -0.000011 -0.000001
 12H   1px        0.000000  0.000002 -0.000013 -0.000005  0.000071  0.000490
 12H   1py        0.000001  0.000006 -0.000037 -0.000018  0.000032 -0.000376
                      6         7         8         9        10        11   
                  -9.91707  -9.91706  -9.91447  -9.91283  -9.91278  -8.39137
                   1.00000   1.00000   1.00000   1.00000   1.00000   1.00000
                  --------  --------  --------  --------  --------  --------
  0C   1s        -0.018954 -0.006185 -0.050170 -0.298233  0.356553  0.000000
  0C   2s        -0.024781 -0.008243 -0.065305 -0.386578  0.462200 -0.000004
  0C   3s        -0.001021 -0.000153 -0.003559 -0.025741  0.031611 -0.000101
  0C   4s        -0.010185  0.004302 -0.008543  0.000165 -0.014512  0.001464
  0C   5s         0.010888 -0.004930  0.008628 -0.015766  0.044816 -0.001072
  0C   1pz       -0.000034  0.000011  0.000026 -0.000059  0.000066  0.000073
  0C   1px        0.000351  0.000142 -0.000352 -0.000287  0.000721 -0.000002
  0C   1py        0.000472  0.000000 -0.000468  0.000429 -0.000253  0.000083
  0C   2pz        0.000644  0.000182 -0.000851 -0.000115  0.000128 -0.000576
  0C   2px       -0.012320  0.001972  0.006911 -0.009418 -0.004410 -0.000372
  0C   2py       -0.013373 -0.001627  0.012734 -0.003737 -0.003518 -0.002033
  0C   3pz        0.000113 -0.000387 -0.000133 -0.000207  0.000927  0.000227
  0C   3px       -0.001786 -0.005996  0.000708 -0.002018  0.010439  0.001360
  0C   3py       -0.003833  0.001481  0.001988  0.001328 -0.005517  0.001218
  0C   1dz2      -0.000137 -0.000214 -0.000105  0.001096 -0.001169 -0.000032
  0C   1dxz      -0.000005  0.000008  0.000001 -0.000069  0.000075 -0.000037
  0C   1dyz      -0.000059 -0.000037  0.000023  0.000166 -0.000182  0.000003
  0C   1dx2y2    -0.000352 -0.000122  0.000280  0.000057 -0.000070 -0.000025
  0C   1dxy      -0.000014  0.000033  0.000209 -0.000226  0.000286  0.000026
  0C   2dz2       0.000304 -0.000534  0.000212  0.000706 -0.000224 -0.000095
  0C   2dxz      -0.000241 -0.000128 -0.000035 -0.000034 -0.000100  0.000113
  0C   2dyz      -0.000835 -0.000105  0.000813 -0.000217 -0.000225  0.000405
  0C   2dx2y2    -0.008475 -0.001353  0.006648 -0.002932 -0.002106 -0.000640
  0C   2dxy      -0.002263  0.001191  0.003643 -0.001682  0.000002 -0.000200
  0C   1f0       -0.000163 -0.000062  0.000039 -0.000042  0.000051  0.000072
  0C   1f+1       0.000347 -0.000027 -0.000794  0.000027  0.000243 -0.000002
  0C   1f-1       0.000890  0.000297 -0.000580  0.000201 -0.000101  0.000068
  0C   1f+2      -0.000220 -0.000068  0.000071  0.000049 -0.000130  0.000100
  0C   1f-2       0.000057  0.000015 -0.000013 -0.000088  0.000154 -0.000007
  0C   1f+3      -0.000320 -0.000089 -0.000104  0.000230 -0.000315  0.000009
  0C   1f-3      -0.000682 -0.000449 -0.000743  0.000847 -0.001299 -0.000016
  1C   1s        -0.436969 -0.165856  0.002343  0.013483 -0.014655  0.000002
  1C   2s        -0.566615 -0.215100  0.002940  0.017405 -0.018712 -0.000025
  1C   3s        -0.038680 -0.014595  0.000143  0.001526 -0.002515  0.000472
  1C   4s         0.009022  0.007564  0.007371 -0.011043  0.005880 -0.002427
  1C   5s        -0.020148  0.000229  0.005447  0.010333 -0.032894 -0.005952
  1C   1pz       -0.000023 -0.000059  0.000035  0.000039 -0.000032 -0.000014
  1C   1px       -0.000917 -0.000444  0.000142  0.000127 -0.000348 -0.000026
  1C   1py       -0.000130  0.000106 -0.000357 -0.000300  0.000247  0.000012
  1C   2pz        0.000250  0.000580 -0.001225 -0.000765  0.000914  0.000655
  1C   2px       -0.000888  0.004270 -0.000572 -0.005239  0.004207  0.000226
  1C   2py       -0.005368 -0.002156  0.013745  0.004619 -0.008370 -0.001018
  1C   3pz        0.000548  0.000211  0.000221 -0.000138 -0.000013 -0.000150
  1C   3px       -0.000769  0.004874  0.003216  0.001504 -0.007884 -0.003653
  1C   3py       -0.003522 -0.000185 -0.000605  0.002094 -0.004010  0.003383
  1C   1dz2       0.001186  0.000377 -0.000158 -0.000115  0.000293  0.000028
  1C   1dxz      -0.000161 -0.000064  0.000002 -0.000003 -0.000003 -0.000027
  1C   1dyz       0.000251  0.000075 -0.000036 -0.000038  0.000081 -0.000178
  1C   1dx2y2     0.000162  0.000117 -0.000060 -0.000239  0.000303  0.000043
  1C   1dxy       0.000224  0.000166  0.000059  0.000063 -0.000083  0.000013
  1C   2dz2       0.000760  0.000385 -0.000269  0.000388 -0.000057 -0.000004
  1C   2dxz       0.000052  0.000296 -0.000401 -0.000484  0.000369  0.000361
  1C   2dyz       0.000178  0.000100 -0.000319  0.000021  0.000372  0.001013
  1C   2dx2y2     0.001135  0.000773 -0.004962 -0.002557  0.005442  0.000858
  1C   2dxy      -0.000833 -0.001754  0.002498  0.002697 -0.001327 -0.000267
  1C   1f0        0.000008 -0.000045  0.000089  0.000143 -0.000164 -0.000041
  1C   1f+1      -0.000275 -0.000246  0.000008  0.000135 -0.000069 -0.000067
  1C   1f-1      -0.000103 -0.000027 -0.000417 -0.000516  0.000704  0.000028
  1C   1f+2      -0.000090 -0.000017  0.000066  0.000106 -0.000179 -0.000073
  1C   1f-2       0.000088  0.000028  0.000033  0.000036 -0.000004 -0.000004
  1C   1f+3      -0.000175 -0.000263  0.000032  0.000108 -0.000137 -0.000064
  1C   1f-3      -0.001200 -0.000598 -0.000005  0.000504 -0.000781 -0.000000
  2H   1s         0.000101  0.000225  0.000766  0.000017  0.000181  0.000021
  2H   2s         0.001049  0.002338  0.001757 -0.000219 -0.002291  0.000252
  2H   3s         0.000340  0.000758  0.002199  0.000102  0.001081  0.000312
  2H   1pz        0.000000  0.000058  0.000198 -0.000048  0.000002  0.000056
  2H   1px       -0.000462  0.000154 -0.000189 -0.000983  0.000093 -0.000005
  2H   1py       -0.000207 -0.000553 -0.002283  0.000076 -0.000018 -0.000030
  3C   1s         0.001256  0.002803 -0.000116  0.000017  0.000178  0.000004
  3C   2s         0.001497  0.003340 -0.000280  0.000025  0.000256 -0.000087
  3C   3s         0.000108  0.000232 -0.000492  0.000147  0.001529  0.000334
  3C   4s        -0.002384 -0.005233  0.013227 -0.001547 -0.016069 -0.003883
  3C   5s        -0.003373 -0.007573 -0.016070  0.003030  0.031623  0.035836
  3C   1pz       -0.000006 -0.000073 -0.000042  0.000019 -0.000003 -0.000092
  3C   1px        0.000449 -0.000207  0.000006  0.000388 -0.000023 -0.000005
  3C   1py       -0.000076 -0.000076  0.000044 -0.000013  0.000176 -0.000119
  3C   2pz       -0.000290  0.000131 -0.000647 -0.000505  0.000885  0.000190
  3C   2px       -0.005954  0.002650  0.000403 -0.011967  0.000525 -0.000137
  3C   2py        0.000221 -0.000724  0.004874  0.000262 -0.007077 -0.001604
  3C   3pz       -0.000296 -0.000583 -0.000190  0.000081 -0.000073 -0.001897
  3C   3px       -0.000490  0.000371 -0.000112  0.001832  0.000263 -0.000389
  3C   3py        0.000595  0.001191 -0.001542  0.000384  0.005471 -0.006121
  3C   1dz2      -0.000130 -0.000312 -0.000205  0.000020  0.000198  0.000020
  3C   1dxz       0.000109 -0.000006  0.000020  0.000012 -0.000015  0.000001
  3C   1dyz      -0.000007  0.000048  0.000016 -0.000002  0.000010  0.000140
  3C   1dx2y2     0.000002  0.000161  0.000030 -0.000003  0.000045 -0.000158
  3C   1dxy      -0.000347  0.000129 -0.000006 -0.000043 -0.000004  0.000018
  3C   2dz2      -0.000420 -0.001011 -0.001114  0.000133  0.001042  0.000292
  3C   2dxz       0.000351  0.000023  0.000155  0.000353 -0.000103 -0.000036
  3C   2dyz      -0.000377 -0.000178 -0.000207 -0.000228  0.000287 -0.000261
  3C   2dx2y2     0.000069  0.002111  0.001529 -0.000733  0.000051  0.000189
  3C   2dxy      -0.004660  0.001784 -0.000235 -0.004528  0.000413 -0.000017
  3C   1f0        0.000141 -0.000029  0.000031  0.000028 -0.000051 -0.000024
  3C   1f+1       0.001048 -0.000516 -0.000009  0.000267 -0.000017 -0.000012
  3C   1f-1      -0.000175 -0.000196 -0.000026 -0.000012  0.000038  0.000023
  3C   1f+2      -0.000127 -0.000153 -0.000036 -0.000005 -0.000011 -0.000209
  3C   1f-2       0.000210  0.000062  0.000024  0.000063 -0.000009  0.000025
  3C   1f+3      -0.000335 -0.000250 -0.000063 -0.000116  0.000017  0.000011
  3C   1f-3      -0.000550 -0.001366 -0.000257  0.000034  0.000023  0.000099
  4C   1s        -0.000160 -0.000364 -0.462361 -0.006804 -0.070917  0.000002
  4C   2s        -0.000247 -0.000558 -0.599586 -0.008788 -0.091585 -0.000018
  4C   3s        -0.000052 -0.000109 -0.040901 -0.000732 -0.007610  0.000057
  4C   4s         0.003681  0.008080  0.008273  0.001620  0.016573  0.001094
  4C   5s         0.004293  0.009636 -0.021051 -0.004415 -0.046298 -0.002177
  4C   1pz        0.000023 -0.000019 -0.000063  0.000034 -0.000024 -0.000000
  4C   1px        0.000533 -0.000233  0.000074  0.000743 -0.000048  0.000000
  4C   1py       -0.000010  0.000087  0.000897 -0.000032  0.000276  0.000000
  4C   2pz       -0.000740  0.000915 -0.000168 -0.000881  0.000287 -0.000041
  4C   2px       -0.019765  0.008276  0.000265 -0.018373  0.001569 -0.000045
  4C   2py       -0.001195 -0.006715  0.002714  0.001195 -0.002536 -0.000605
  4C   3pz        0.000147  0.000382 -0.000126 -0.000308 -0.000859 -0.000043
  4C   3px       -0.000562 -0.000164  0.000168 -0.004464  0.001369 -0.000032
  4C   3py       -0.001831 -0.004187  0.002036  0.001439  0.011288 -0.000436
  4C   1dz2      -0.000068 -0.000152  0.001210  0.000050  0.000558 -0.000023
  4C   1dxz       0.000007  0.000009 -0.000108 -0.000037 -0.000053  0.000006
  4C   1dyz      -0.000004 -0.000021  0.000157  0.000032  0.000055  0.000036
  4C   1dx2y2     0.000004 -0.000029 -0.000349  0.000054 -0.000263  0.000020
  4C   1dxy       0.000092 -0.000036  0.000046  0.000482 -0.000009 -0.000005
  4C   2dz2      -0.000126 -0.000122  0.000773 -0.000093 -0.000254 -0.000068
  4C   2dxz      -0.000593  0.000344 -0.000056 -0.000715 -0.000043  0.000009
  4C   2dyz       0.000463 -0.000150  0.000080  0.000516 -0.000271 -0.000149
  4C   2dx2y2     0.001713  0.000389  0.000055  0.001349 -0.002471  0.000296
  4C   2dxy       0.007845 -0.003708 -0.000027  0.009729 -0.000553 -0.000039
  4C   1f0        0.000044 -0.000061 -0.000083  0.000158  0.000043 -0.000005
  4C   1f+1       0.000496 -0.000206  0.000024  0.001261 -0.000161  0.000001
  4C   1f-1       0.000040  0.000180  0.000369 -0.000120 -0.000318  0.000014
  4C   1f+2      -0.000046 -0.000024 -0.000164 -0.000093 -0.000072 -0.000007
  4C   1f-2       0.000063 -0.000028  0.000071  0.000157  0.000115 -0.000001
  4C   1f+3      -0.000003 -0.000034 -0.000296  0.000101 -0.000364  0.000003
  4C   1f-3      -0.000051 -0.000115 -0.001190 -0.000161 -0.001437  0.000016
  5Br  1s        -0.000001 -0.000003 -0.000002  0.000000  0.000000  0.127782
  5Br  2s        -0.000007 -0.000015 -0.000010  0.000000  0.000002 -0.503077
  5Br  3s        -0.000024 -0.000053 -0.000038  0.000001  0.000008  0.587176
  5Br  4s         0.000072  0.000160  0.000107 -0.000003 -0.000027  0.508658
  5Br  5s        -0.000428 -0.000952 -0.000529  0.000026  0.000280  0.048894
  5Br  6s         0.001341  0.002983  0.001831 -0.000140 -0.001474 -0.025844
  5Br  1pz       -0.000005 -0.000012 -0.000006  0.000000  0.000004 -0.000749
  5Br  1px        0.000001 -0.000000  0.000000 -0.000000 -0.000000 -0.000050
[...]
----------------------------------------------------
CHARGE
  0 C s       :     2.771586  s :     2.771586
      pz      :     0.879901  p :     2.934105
      px      :     1.014184
      py      :     1.040020
      dz2     :     0.025933  d :     0.388932
      dxz     :     0.037595
      dyz     :     0.057437
      dx2y2   :     0.110289
      dxy     :     0.157678
      f0      :     0.003157  f :     0.042722
      f+1     :     0.003496
      f-1     :     0.004043
      f+2     :     0.006888
      f-2     :     0.002264
      f+3     :     0.014763
      f-3     :     0.008110

  1 C s       :     2.776496  s :     2.776496
      pz      :     0.868235  p :     2.921284
      px      :     0.994098
      py      :     1.058952
      dz2     :     0.027856  d :     0.387269
      dxz     :     0.027155
      dyz     :     0.066326
      dx2y2   :     0.124622
      dxy     :     0.141310
      f0      :     0.003553  f :     0.042773
      f+1     :     0.003642
      f-1     :     0.004303
      f+2     :     0.004393
      f-2     :     0.004519
      f+3     :     0.014299
      f-3     :     0.008064

  2 H s       :     0.797450  s :     0.797450
      pz      :     0.014064  p :     0.059156
      px      :     0.011125
      py      :     0.033967

  3 C s       :     2.762594  s :     2.762594
      pz      :     0.938636  p :     3.004916
      px      :     1.093336
      py      :     0.972944
      dz2     :     0.070934  d :     0.596614
      dxz     :     0.090549
      dyz     :     0.142326
      dx2y2   :     0.165545
      dxy     :     0.127260
      f0      :     0.004564  f :     0.056137
      f+1     :     0.004580
      f-1     :     0.005925
      f+2     :     0.007951
      f-2     :     0.008283
      f+3     :     0.016108
      f-3     :     0.008726

  4 C s       :     2.771928  s :     2.771928
      pz      :     0.869696  p :     2.925527
      px      :     1.068138
      py      :     0.987693
      dz2     :     0.026303  d :     0.389521
      dxz     :     0.075823
      dyz     :     0.017981
      dx2y2   :     0.164890
      dxy     :     0.104524
      f0      :     0.003552  f :     0.042970
      f+1     :     0.004453
      f-1     :     0.003130
      f+2     :     0.001572
      f-2     :     0.007295
      f+3     :     0.014922
      f-3     :     0.008045

  5 Brs       :     7.680917  s :     7.680917
      pz      :     5.720750  p :    17.038060
      px      :     5.891906
      py      :     5.425404
      dz2     :     2.020882  d :    10.104845
      dxz     :     2.004686
      dyz     :     2.040804
      dx2y2   :     2.024063
      dxy     :     2.014410
      f0      :     0.001169  f :     0.010420
      f+1     :     0.000063
      f-1     :     0.002472
      f+2     :     0.003343
      f-2     :     0.000997
      f+3     :     0.000954
      f-3     :     0.001423

  6 H s       :     0.793021  s :     0.793021
      pz      :     0.014063  p :     0.059984
      px      :     0.027700
      py      :     0.018221

  7 H s       :     0.754223  s :     0.754223
      pz      :     0.026803  p :     0.058153
      px      :     0.011620
      py      :     0.019730

  8 C s       :     2.771627  s :     2.771627
      pz      :     0.880444  p :     2.934086
      px      :     1.002677
      py      :     1.050965
      dz2     :     0.027075  d :     0.388756
      dxz     :     0.026766
      dyz     :     0.066748
      dx2y2   :     0.126979
      dxy     :     0.141188
      f0      :     0.003085  f :     0.042702
      f+1     :     0.003484
      f-1     :     0.004162
      f+2     :     0.005192
      f-2     :     0.003938
      f+3     :     0.014776
      f-3     :     0.008065

  9 H s       :     0.796503  s :     0.796503
      pz      :     0.013090  p :     0.058614
      px      :     0.030188
      py      :     0.015336

 10 H s       :     0.796474  s :     0.796474
      pz      :     0.013272  p :     0.058562
      px      :     0.026806
      py      :     0.018484

 11 C s       :     2.776456  s :     2.776456
      pz      :     0.867630  p :     2.921309
      px      :     1.002123
      py      :     1.051556
      dz2     :     0.026346  d :     0.387429
      dxz     :     0.038141
      dyz     :     0.056504
      dx2y2   :     0.109062
      dxy     :     0.157377
      f0      :     0.003688  f :     0.042791
      f+1     :     0.003601
      f-1     :     0.004056
      f+2     :     0.005972
      f-2     :     0.003041
      f+3     :     0.014350
      f-3     :     0.008083

 12 H s       :     0.793052  s :     0.793052
      pz      :     0.013949  p :     0.060033
      px      :     0.031117
      py      :     0.014967


SPIN
  0 C s       :    -0.002949  s :    -0.002949
      pz      :    -0.061975  p :    -0.070384
      px      :    -0.003922
      py      :    -0.004487
      dz2     :     0.000627  d :     0.054363
      dxz     :     0.015472
      dyz     :     0.034676
      dx2y2   :     0.001788
      dxy     :     0.001800
      f0      :     0.000574  f :     0.005712
      f+1     :     0.000072
      f-1     :     0.000194
      f+2     :     0.003639
      f-2     :     0.000869
      f+3     :     0.000160
      f-3     :     0.000203

  1 C s       :     0.006045  s :     0.006045
      pz      :     0.211498  p :     0.220650
      px      :     0.004492
      py      :     0.004660
      dz2     :    -0.001265  d :    -0.007014
      dxz     :     0.000358
      dyz     :    -0.004560
      dx2y2   :    -0.000678
      dxy     :    -0.000869
      f0      :    -0.000371  f :    -0.001565
      f+1     :    -0.000272
      f-1     :    -0.000271
      f+2     :    -0.000320
      f-2     :    -0.000134
      f+3     :    -0.000024
      f-3     :    -0.000173

  2 H s       :    -0.007410  s :    -0.007410
      pz      :     0.006148  p :     0.007229
      px      :     0.000089
      py      :     0.000992

  3 C s       :    -0.000239  s :    -0.000239
      pz      :    -0.015650  p :    -0.012735
      px      :    -0.004701
      py      :     0.007615
      dz2     :     0.006530  d :     0.087774
      dxz     :     0.008601
      dyz     :     0.068231
      dx2y2   :     0.002582
      dxy     :     0.001830
      f0      :     0.002050  f :     0.008746
      f+1     :     0.000181
      f-1     :     0.000232
      f+2     :     0.004559
      f-2     :     0.000957
      f+3     :     0.000186
      f-3     :     0.000581

  4 C s       :     0.007036  s :     0.007036
      pz      :     0.245229  p :     0.257486
      px      :     0.005596
      py      :     0.006661
      dz2     :    -0.001297  d :    -0.009775
      dxz     :    -0.008033
      dyz     :     0.001811
      dx2y2   :    -0.000975
      dxy     :    -0.001282
      f0      :    -0.000538  f :    -0.002491
      f+1     :    -0.000313
      f-1     :    -0.000273
      f+2     :    -0.000194
      f-2     :    -0.000826
      f+3     :    -0.000150
      f-3     :    -0.000197

  5 Brs       :     0.005595  s :     0.005595
      pz      :     0.065846  p :     0.183394
      px      :     0.000589
      py      :     0.116960
      dz2     :     0.000105  d :     0.008537
      dxz     :    -0.000026
      dyz     :     0.005236
      dx2y2   :     0.002957
      dxy     :     0.000266
      f0      :     0.000013  f :     0.000449
      f+1     :     0.000002
      f-1     :     0.000050
      f+2     :     0.000342
      f-2     :    -0.000011
      f+3     :    -0.000009
      f-3     :     0.000063

  6 H s       :    -0.006102  s :    -0.006102
      pz      :     0.004751  p :     0.005620
      px      :     0.000580
      py      :     0.000289

  7 H s       :     0.058686  s :     0.058686
      pz      :    -0.000631  p :    -0.001026
      px      :    -0.000008
      py      :    -0.000387

  8 C s       :    -0.002948  s :    -0.002948
      pz      :    -0.062055  p :    -0.070381
      px      :    -0.003455
      py      :    -0.004872
      dz2     :     0.001361  d :     0.054286
      dxz     :     0.008894
      dyz     :     0.039813
      dx2y2   :     0.001698
      dxy     :     0.002519
      f0      :     0.000551  f :     0.005706
      f+1     :     0.000163
      f-1     :     0.000131
      f+2     :     0.002444
      f-2     :     0.002007
      f+3     :     0.000158
      f-3     :     0.000251

  9 H s       :     0.002006  s :     0.002006
      pz      :    -0.001394  p :    -0.001793
      px      :    -0.000243
      py      :    -0.000156

 10 H s       :     0.002008  s :     0.002008
      pz      :    -0.001393  p :    -0.001791
      px      :    -0.000225
      py      :    -0.000174

 11 C s       :     0.006035  s :     0.006035
      pz      :     0.209807  p :     0.220294
      px      :     0.005725
      py      :     0.004762
      dz2     :    -0.001129  d :    -0.007015
      dxz     :     0.000200
      dyz     :    -0.004446
      dx2y2   :    -0.000923
      dxy     :    -0.000716
      f0      :    -0.000372  f :    -0.001564
      f+1     :    -0.000253
      f-1     :    -0.000270
      f+2     :    -0.000467
      f-2     :    -0.000041
      f+3     :    -0.000039
      f-3     :    -0.000121

 12 H s       :    -0.006108  s :    -0.006108
      pz      :     0.004761  p :     0.005634
      px      :     0.000685
      py      :     0.000188



                      *****************************
                      * MAYER POPULATION ANALYSIS *
                      *****************************

  NA   - Mulliken gross atomic population
  ZA   - Total nuclear charge
  QA   - Mulliken gross atomic charge
  VA   - Mayer's total valence
  BVA  - Mayer's bonded valence
  FA   - Mayer's free valence

  ATOM       NA         ZA         QA         VA         BVA        FA
  0 C      6.0620     6.0000    -0.0620     3.9411     3.9323     0.0087
  1 C      6.2019     6.0000    -0.2019     4.0490     3.9724     0.0766
  2 H      0.9046     1.0000     0.0954     0.9643     0.9637     0.0006
  3 C      5.7722     6.0000     0.2278     3.9557     3.9515     0.0042
  4 C      6.0897     6.0000    -0.0897     3.9817     3.8815     0.1002
  5 Br    35.2121    35.0000    -0.2121     1.0777     1.0300     0.0477
  6 H      0.8956     1.0000     0.1044     0.9823     0.9820     0.0003
  7 H      0.8926     1.0000     0.1074     0.9689     0.9617     0.0073
  8 C      6.0619     6.0000    -0.0619     3.9406     3.9319     0.0087
  9 H      0.9048     1.0000     0.0952     0.9655     0.9655     0.0000
 10 H      0.9049     1.0000     0.0951     0.9656     0.9655     0.0000
 11 C      6.2022     6.0000    -0.2022     4.0491     3.9728     0.0763
 12 H      0.8955     1.0000     0.1045     0.9823     0.9820     0.0003

  Mayer bond orders larger than 0.100000
B(  0-C ,  1-C ) :   1.5072 B(  0-C ,  4-C ) :   1.3397 B(  0-C , 10-H ) :   0.9613 
B(  1-C ,  3-C ) :   1.1567 B(  1-C , 11-C ) :   0.1026 B(  1-C , 12-H ) :   0.9598 
B(  2-H ,  4-C ) :   0.9639 B(  3-C ,  5-Br) :   0.7113 B(  3-C ,  7-H ) :   0.8525 
B(  3-C , 11-C ) :   1.1568 B(  4-C ,  8-C ) :   1.3389 B(  6-H , 11-C ) :   0.9598 
B(  8-C ,  9-H ) :   0.9613 B(  8-C , 11-C ) :   1.5075 

-------
TIMINGS
-------

Total SCF time: 0 days 0 hours 0 min 11 sec 

Total time                  ....      11.973 sec
Sum of individual times     ....      11.237 sec  ( 93.8%)

SCF preparation             ....       0.021 sec  (  0.2%)
Fock matrix formation       ....      11.054 sec  ( 92.3%)
  Startup                   ....       0.002 sec  (  0.0% of F)
  Split-RI-J                ....       2.288 sec  ( 20.7% of F)
  XC integration            ....       9.478 sec  ( 85.7% of F)
    Basis function eval.    ....       1.831 sec  ( 19.3% of XC)
    Density eval.           ....       1.928 sec  ( 20.3% of XC)
    XC-Functional eval.     ....       0.139 sec  (  1.5% of XC)
    XC-Potential eval.      ....       5.402 sec  ( 57.0% of XC)
Diagonalization             ....       0.000 sec  (  0.0%)
Density matrix formation    ....       0.013 sec  (  0.1%)
Total Energy calculation    ....       0.013 sec  (  0.1%)
Population analysis         ....       0.006 sec  (  0.1%)
Orbital Transformation      ....       0.024 sec  (  0.2%)
Orbital Orthonormalization  ....       0.000 sec  (  0.0%)
DIIS solution               ....       0.069 sec  (  0.6%)
SOSCF solution              ....       0.035 sec  (  0.3%)
Finished LeanSCF after  12.0 sec

Maximum memory used throughout the entire LEANSCF-calculation: 29.6 MB

-------------------------   --------------------
FINAL SINGLE POINT ENERGY     -2806.141970558848
-------------------------   --------------------


------------------------------------------------------------------------------
                              ORCA PROPERTY CALCULATIONS
------------------------------------------------------------------------------

GBWName                                 ... job.gbw
Number of atoms                         ...     13
Number of basis functions               ...    270
Max core memory                         ...  16384 MB

Electric properties:
Dipole moment                           ... YES
Quadrupole moment                       ...  NO
Static polarizability (Dipole/Dipole)   ...  NO
Static polarizability (Dipole/Quad.)    ...  NO
Static polarizability (Quad./Quad.)     ...  NO
Static polarizability (Velocity)        ...  NO
Static hyperpolarizability              ...  NO

Atomic electric properties:
Dipole moment                           ...  NO
Quadrupole moment                       ...  NO
Static polarizability                   ...  NO

Choice of electric origin               ... Center of mass
Position of electric origin             ...    -4.340409    -0.741529    -0.846684

General magnetic properties:
Magnetizability                         ...  NO

EPR properties:
g-Tensor (aka g-matrix)                 ...  NO
Zero-Field splitting spin-orbit         ...  NO
Zero-field splitting spin-spin          ...  NO
Hyperfine couplings                     ...  NO (   0 nuclei)
Quadrupole couplings                    ...  NO (   0 nuclei)
Contact density                         ...  NO (   0 nuclei)

NMR properties:
Chemical shifts                         ...  NO (   0 nuclei)
Spin-rotation constants                 ...  NO (   0 nuclei)
Spin-spin couplings                     ...  NO (   0 nuclei,    0 pairs)

Choice of magnetic origin               ... GIAO
Position of magnetic origin             ...     0.000000     0.000000     0.000000

Properties with geometric perturbations:
SCF Hessian                             ...  NO
IR spectrum                             ...  NO
VCD spectrum                            ...  NO
X-ray spectroscopy properties:
SCF XES/XAS/RIXS spectra                ...  NO

SCF SOC stabilization energy            ...  NO
Diagonal Born-Oppenheimer correction    ...  NO

-------------
DIPOLE MOMENT
-------------

Method             : SCF
Type of density    : Electron Density
Multiplicity       :   2
Irrep              :   0
Energy             : -2806.1419705588477882 Eh
Basis              : AO
                                X                 Y                 Z
Electronic contribution:     -1.394518902     -22.506924753      -7.628802064
Nuclear contribution   :      1.442261726      23.444704566       8.158523024
                        -----------------------------------------
Total Dipole Moment    :      0.047742825       0.937779813       0.529720960
                        -----------------------------------------
Magnitude (a.u.)       :      1.078106975
Magnitude (Debye)      :      2.740330154



--------------------
Rotational spectrum 
--------------------
 
Rotational constants in cm-1:             0.164122             0.033208             0.028858 
Rotational constants in MHz :          4920.268350           995.565422           865.141664 

Dipole components along the rotational axes: 
x,y,z [a.u.] :     1.039474     0.000036     0.286023 
x,y,z [Debye]:     2.642132     0.000092     0.727013 

 

Dipole moment calculation done in   0.0 sec 

Maximum memory used throughout the entire PROP-calculation: 22.2 MB

--------------------------------
SUGGESTED CITATIONS FOR THIS RUN
--------------------------------

Below you find a list of papers that are relevant to this ORCA run
We neither can nor want to force you to cite these papers, but we appreciate if you do
You receive ORCA, which is the product of decades of hard work by many enthusiastic individuals, for free
The only thing we kindly ask in return is that you cite our papers,
We deeply appreciate it, if you show your appreciation for ORCA by not just citing the generic ORCA reference.

Please note that relegating all ORCA citations to the supporting information does *not* help us.
SI sections are not indexed - citations you put there will not count into any citation statistics
But we need these citations in order to attract the funding resources that allow us to do what we are doing

Therefore, if you are a happy ORCA user, please consider citing a few of the papers listed below in the main body of your paper

In addition to the list printed below, the program has created the file job.bibtex that contains the list in bibtex format
You can import this file easily into all common literature databanks and citation aid programs


List of essential papers. We consider these as the minimum necessary citations

  1. Neese, F.
     Software update: the ORCA program system, version 6.0
     WIRES Comput. Molec. Sci. 2025 15(1), e70019
     doi.org/10.1002/wcms.7019

List of papers to cite with high priority. The work reported in these papers was absolutely
necessary for this run to complete.
Our perspective: the developers of density functionals and basis sets usually get cited in chemistry papers
Good! But without the algorithms to do something with them, the functionals or basis sets would not do anything.
Hence, in our opinion, the algorithm design and method developments papers are equally worthy of getting cited

  1. Neese, F.
     An improvement of the resolution of the identity approximation for the formation of the Coulomb matrix
     J. Comp. Chem. 2003 24(14), 1740-1747
     doi.org/10.1002/jcc.10318
  2. Neese, F.
     The SHARK Integral Generation and Digestion System
     J. Comp. Chem. 2022 44(3), 381
     doi.org/10.1002/jcc.26942

List of suggested additional citations. These are papers that are important in the 'surrounding' of 
of this run, or papers that preceded the highly important papers. If you like your results we are grateful for a citation.

  1. Neese, F.
     The ORCA program system
     WIRES Comput. Molec. Sci. 2012 2(1), 73-78
     doi.org/10.1002/wcms.81
  2. Neese, F.
     Software update: the ORCA program system, version 4.0
     WIRES Comput. Molec. Sci. 2018 8(1), 1-6
     doi.org/10.1002/wcms.1327
  3. Neese, F.; Wennmohs, F.; Becker, U.; Riplinger, C.
     The ORCA quantum chemistry program package
     J. Chem. Phys. 2020 152(22), 224108
     doi.org/10.1063/5.0004608
  4. Neese, F.
     Software update: The ORCA program system—Version 5.0
     WIRES Comput. Molec. Sci. 2022 12(1), e1606
     doi.org/10.1002/wcms.1606

List of optional additional citations

  1. Neese, F.
     Approximate second-order SCF convergence for spin unrestricted wavefunctions
     Chem. Phys. Lett. 2000 325(1-3), 93-98
     doi.org/10.1016/s0009-2614(00)00662-x

Timings for individual modules:

Sum of individual times          ...       12.972 sec (=   0.216 min)
Startup calculation              ...        0.443 sec (=   0.007 min)   3.4 %
SCF iterations                   ...       12.469 sec (=   0.208 min)  96.1 %
Property calculations            ...        0.060 sec (=   0.001 min)   0.5 %
                             ****ORCA TERMINATED NORMALLY****
TOTAL RUN TIME: 0 days 0 hours 0 minutes 13 seconds 51 msec
