
                                 *****************
                                 * O   R   C   A *
                                 *****************

                                            #,                                       
                                            ###                                      
                                            ####                                     
                                            #####                                    
                                            ######                                   
                                           ########,                                 
                                     ,,################,,,,,                         
                               ,,#################################,,                 
                          ,,##########################################,,             
                       ,#########################################, ''#####,          
                    ,#############################################,,   '####,        
                  ,##################################################,,,,####,       
                ,###########''''           ''''###############################       
              ,#####''   ,,,,##########,,,,          '''####'''          '####       
            ,##' ,,,,###########################,,,                        '##       
           ' ,,###''''                  '''############,,,                           
         ,,##''                                '''############,,,,        ,,,,,,###''
      ,#''                                            '''#######################'''  
     '                                                          ''''####''''         
             ,#######,   #######,   ,#######,      ##                                
            ,#'     '#,  ##    ##  ,#'     '#,    #''#        ,####,    ,#,          
            ##       ##  ##   ,#'  ##            #'  '#       #'       ,# #          
            ##       ##  #######   ##           ,######,      #####,      #          
            '#,     ,#'  ##    ##  '#,     ,#' ,#      #,     #,   #      #          
             '#######'   ##     ##  '#######'  #'      '#     '####' #    #          



                #########################################################
                #                        -***-                          #
                #          Department of theory and spectroscopy        #
                #                                                       #
                #                      Frank Neese                      #
                #                                                       #
                #     Directorship, Architecture, Infrastructure        #
                #                    SHARK, DRIVERS                     #
                #        Core code/Algorithms in most modules           #
                #                                                       #
                #        Max Planck Institute fuer Kohlenforschung      #
                #                Kaiser Wilhelm Platz 1                 #
                #                 D-45470 Muelheim/Ruhr                 #
                #                      Germany                          #
                #                                                       #
                #                  All rights reserved                  #
                #                        -***-                          #
                #########################################################


                         Program Version 6.1.0  -  RELEASE   -
                                (GIT: $679e74b7b5$)
                          ($2025-06-10 18:02:51 +0200$)


 With contributions from (in alphabetic order):
[Max-Planck-Institut fuer Kohlenforschung]                               
  Daniel Aravena         : Magnetic Suceptibility                        
  Michael Atanasov       : Ab Initio Ligand Field Theory (pilot matlab implementation)
  Alexander A. Auer      : GIAO ZORA, VPT2 properties, NMR spectrum      
  Ute Becker             : All parallelization in ORCA, NUMFREQ, NUMCALC 
  Giovanni Bistoni       : ED, misc. LED, open-shell LED, HFLD           
  Dmytro Bykov           : pre 5.0 version of the SCF Hessian            
  Marcos Casanova-Páez   : Triplet and SCS-CIS(D). UHF-(DLPNO)-IP/EA/STEOM-CCSD. UHF-CVS-IP/STEOM-CCSD   
  Vijay G. Chilkuri      : MRCI spin determinant printing, contributions to CSF-ICE 
  Pauline Colinet        : FMM embedding                                 
  Dipayan Datta          : RHF DLPNO-CCSD density                        
  Achintya Kumar Dutta   : EOM-CC, STEOM-CC                              
  Nicolas Foglia         : Exact transition moments, OPA infrastructure, MCD improvements    
  Dmitry Ganyushin       : Spin-Orbit,Spin-Spin,Magnetic field MRCI      
  Miquel Garcia-Rates    : C-PCM and meta-GGA Hessian, CCSD/C-PCM, Gaussian charge scheme 
  Tiago L. C. Gouveia    : GS-ROHF, GS-ROCIS                             
  Yang Guo               : DLPNO-NEVPT2, F12-NEVPT2, CIM, IAO-localization        
  Andreas Hansen         : Spin unrestricted coupled pair/coupled cluster methods 
  Ingolf Harden          : AUTO-CI MPn and infrastructure                
  Benjamin Helmich-Paris : MC-RPA, TRAH-(SCF,CASSCF), AVAS, COSX integrals, SCF dyn. polar., MC-PDFT, srDFT 
  Lee Huntington         : MR-EOM, pCC                                   
  Robert Izsak           : Overlap fitted RIJCOSX, COSX-SCS-MP3, EOM     
  Riya Kayal             : Wick's Theorem for AUTO-CI, AUTO-CI UHF-CCSDT 
  Emily Kempfer          : AUTO-CI RHF CISDT and CCSDT, approximate NEVPT4
  Christian Kollmar      : KDIIS, OOCD, Brueckner-CCSD(T), CCSD density, CASPT2, CASPT2-K, improved NEVPT2 
  Axel Koslowski         : Symmetry handling                             
  Simone Kossmann        : meta-GGA functionals, TD-DFT gradient, OOMP2, (MP2 Hessian; deprecated post 5.0) 
  Lucas Lang             : DCDCAS, Hyperfine gauge corrections, ICE-SOC+SSC
  Marvin Lechner         : AUTO-CI (C++ implementation), FIC-MRCC        
  Spencer Leger          : CASSCF response                               
  Dagmar Lenk            : GEPOL surface, SMD, ORCA-2-JSON               
  Dimitrios Liakos       : Extrapolation schemes; Compound Job, Property file
  Dimitrios Manganas     : Further ROCIS development; embedding schemes. LFT, Crystal Embedding 
  Dimitrios Pantazis     : SARC Basis sets                               
  Anastasios Papadopoulos: AUTO-CI, single reference methods and gradients 
  Taras Petrenko         : pre 6.0 DFT Hessian and TD-DFT gradient,  ECA, NRVS 
  Petra Pikulova         : Analytic Raman intensities                    
  Peter Pinski           : DLPNO-MP2, DLPNO-MP2 Gradient                 
  Shashank Vittal Rao    : ES-AILFT, MagRelax                            
  Christoph Reimann      : Effective Core Potentials                     
  Marius Retegan         : Local ZFS, SOC                                
  Christoph Riplinger    : Optimizer, TS searches, QM/MM, DLPNO-CCSD(T), (RO)-DLPNO pert. Triples 
  Michael Roemelt        : Original ROCIS implementation, recursive CI coupling coefficients
  Masaaki Saitow         : Open-shell DLPNO-CCSD energy and density      
  Barbara Sandhoefer     : DKH picture change effects                    
  Yorick L. A. Schmerwitz: GMF and freeze-and-release deltaSCF, NEB S-IDPP initial path                    
  Kantharuban Sivalingam : CASSCF convergence/infrastructure, NEVPT2, NEVPT3, NEVPT4(SD), FIC-MRCI and CEPA variants
  Bernardo de Souza      : ESD, SOC TD-DFT                               
  Georgi L. Stoychev     : AutoAux, RI-MP2 NMR, DLPNO-MP2 response, X2C  
  Van Anh Tran           : RI-MP2 g-tensors                              
  Willem Van den Heuvel  : Paramagnetic NMR                              
  Zikuan Wang            : NOTCH, Electric field optimization            
  Frank Wennmohs         : Technical directorship and infrastructure     
  Hang Xu                : AUTO-CI-Response properties                   
                                                                         
[FACCTs GmbH]                                                            
  Markus Bursch, Nicolas Foglia, Miquel Garcia-Rates, Ingolf Harden, Hagen Neugebauer, Anastasios Papadopoulos, 
  Christoph Riplinger, Bernardo de Souza, Georgi L. Stoychev                                                    
                                                                 
  APM, various basis sets, CI-OPT, improved COSX, DLPNO-Multilevel,           
  DOCKER, DRACO, updates on ESD, Fragmentator, GOAT, IRC, LR-CPCM, L-BFGS, MBIS, meta-GGA TD-DFT gradient, ML-optimized integration grids, 
  MM, NACMEs, nearIR, NEB, NEB-TS, NL-DFT gradient (VV10), 2- and 3-layer-ONIOM, interface openCOSMO-RS, QMMM,   
  Crystal-QMMM, RESP, rigid body optimization, SF, symmetry and pop. for TD-DFT, various functionals, SOLVATOR                                   
                                                                         
[Other institutions]                                                     
  V. Asgeirsson          : NEB                                           
  Christoph Bannwarth    : sTDA-DFT, sTD-DFT, PBEh-3c, B97-3c, D3        
  Giovanni Bistoni       : ETS/NOCV, ADLD/ADEX, COVALED                  
  Martin Brehm           : Molecular dynamics                            
  Ronald Cardenas        : ETS/NOCV                                      
  Martina Colucci        : COVALED                                       
  Sebastian Ehlert       : rSCAN, r2SCAN, r2SCAN-3c, D4, dhf basis sets  
  Marvin Friede          : D4 for Fr, Ra, Ac-Lr                          
  Lars Goerigk           : TD-DFT with DH, B97 family of functionals     
  Stefan Grimme          : VdW corrections, initial TS optimization, DFT functionals, gCP, sTDA/sTD-DF 
  Waldemar Hujo          : DFT-NL                                        
  H. Jonsson             : NEB                                           
  Holger Kruse           : gCP                                           
  Marcel Mueller         : wB97X-3c, vDZP basis set                      
  Hagen Neugebauer       : wr2SCAN, Native XTB                           
  Gianluca Regni         : ADLD/ADEX                                     
  Tobias Risthaus        : pre 6.0 range-separated hybrid DFT and stability analysis
  Lukas Wittmann         : regularized MP2, r2SCAN double-hybrids, wr2SCAN        
                                                                         
We gratefully acknowledge several colleagues who have allowed us to      
interface, adapt or use parts of their codes:                            
  Ed Valeev, F. Pavosevic, A. Kumar             : LibInt (2-el integral package), F12 methods 
  Garnet Chan, S. Sharma, J. Yang, R. Olivares  : DMRG                   
  Ulf Ekstrom                                   : XCFun DFT Library      
  Mihaly Kallay                                 : mrcc  (arbitrary order and MRCC methods)
  Frank Weinhold                                : gennbo (NPA and NBO analysis)           
  Simon Mueller                                 : openCOSMO-RS                            
  Christopher J. Cramer and Donald G. Truhlar   : smd solvation model                     
  S Lehtola, MJT Oliveira, MAL Marques          : LibXC Library                           
  Liviu Ungur et al                             : ANISO software                          


 Your calculation uses the libint2 library for the computation of 2-el integrals
 For citations please refer to: http://libint.valeyev.net

 Your ORCA version has been built with support for libXC version: 7.0.0
 For citations please refer to: https://libxc.gitlab.io

 This ORCA versions uses:
   CBLAS   interface :  Fast vector & matrix operations
   LAPACKE interface :  Fast linear algebra routines
   SCALAPACK package :  Parallel linear algebra routines
   Shared memory     :  Shared parallel matrices


  ***********************************
  * Starting time: Wed Jul  9 18:16:54 2025
  * Host name:     MacBook-Air-3.local
  * Process ID:    75334
  * Working dir.:  /Users/blenl/Desktop/Folders/Projects/DFT2/others/fluorine/geom_optimization
  ***********************************

NOTE: MaxCore=16384 MB was set to SCF,MP2,MDCI,CIPSI,MRCI,RASCI and CIS
      => If you want to overwrite this, your respective input block should be placed after the MaxCore statement
Warning: RI is on but no J-basis has been assigned. Assigning Def2/J (nothing to worry about!)
================================================================================

----- Orbital basis set information -----
Your calculation utilizes the basis: def2-TZVP
   F. Weigend and R. Ahlrichs, Phys. Chem. Chem. Phys. 7, 3297 (2005).

----- AuxJ basis set information -----
Your calculation utilizes the auxiliary basis: def2/J
   H-Rn: F. Weigend, Phys. Chem. Chem. Phys. 8, 1057 (2006).
   Fr-Lr: K. Eichkorn, F. Weigend, O. Treutler, R. Ahlrichs; Theor. Chem. Acc. 97, 119 (1997).

================================================================================
                                        WARNINGS
                       Please study these warnings very carefully!
================================================================================


WARNING: Geometry Optimization
  ===> : Switching off AutoStart
         For restart on a previous wavefunction, please use MOREAD

================================================================================
                                       INPUT FILE
================================================================================
NAME = job.inp
|  1> # avogadro generated ORCA file
|  2> # C6H11F | Geometry Optimization | revPBE/def2-TZVP
|  3> # 
|  4> ! Opt revPBE def2-TZVP 
|  5> 
|  6> %maxcore 16384
|  7> 
|  8> %pal
|  9>    nprocs 1
| 10> end
| 11> 
| 12> * xyz 0 1
| 13>    C     -4.257341    2.529246   -0.270542
| 14>    C     -4.266955    1.062796    0.148204
| 15>    H     -1.732251    1.003864    1.380579
| 16>    H     -5.122990    0.546987   -0.301560
| 17>    C     -3.023265    3.257355    0.258693
| 18>    F     -2.996917   -0.905367    0.251218
| 19>    H     -4.277370    2.595732   -1.365334
| 20>    H     -5.163413    3.024299    0.096509
| 21>    C     -1.731151    2.544611   -0.135279
| 22>    H     -3.009061    4.284213   -0.123637
| 23>    H     -3.082187    3.324239    1.352123
| 24>    C     -1.748676    1.078990    0.286061
| 25>    H     -1.596118    2.609868   -1.221993
| 26>    H     -0.875177    3.051272    0.324418
| 27>    C     -2.977446    0.358383   -0.252658
| 28>    H     -0.841968    0.573601   -0.065422
| 29>    H     -4.402833    0.984471    1.234144
| 30>    H     -2.917152    0.274958   -1.343662
| 31> *
| 32> 
| 33> 
| 34> 
| 35>                          ****END OF INPUT****
================================================================================

                       *****************************
                       * Geometry Optimization Run *
                       *****************************

Geometry optimization settings:
Update method            Update   .... BFGS
Choice of coordinates    CoordSys .... (2022) Redundant Internals
Initial Hessian          InHess   .... Almloef's Model
Max. no of cycles        MaxIter  .... 54

Convergence Tolerances:
Energy Change            TolE     ....  5.0000e-06 Eh
Max. Gradient            TolMAXG  ....  3.0000e-04 Eh/bohr
RMS Gradient             TolRMSG  ....  1.0000e-04 Eh/bohr
Max. Displacement        TolMAXD  ....  4.0000e-03 bohr
RMS Displacement         TolRMSD  ....  2.0000e-03 bohr
Strict Convergence                .... False

------------------------------------------------------------------------------
                        ORCA OPTIMIZATION COORDINATE SETUP
------------------------------------------------------------------------------

The optimization will be done in redundant internal coordinates (2022)
Making redundant internal coordinates   ...  (2022 redundants) done
Evaluating the initial hessian          ...  (Almloef) done
Evaluating the coordinates              ...  done
Calculating the B-matrix                .... done
Calculating the G-matrix                .... done
The number of degrees of freedom        ....   90

    -----------------------------------------------------------------
                    Redundant Internal Coordinates


    -----------------------------------------------------------------
         Definition                    Initial Value    Approx d2E/dq
    -----------------------------------------------------------------
      1. B(C   1,C   0)                  1.5251         0.380367   
      2. B(H   3,C   1)                  1.0960         0.352293   
      3. B(C   4,C   0)                  1.5275         0.377058   
      4. B(H   6,C   0)                  1.0970         0.350968   
      5. B(H   7,C   0)                  1.0958         0.352513   
      6. B(C   8,C   4)                  1.5273         0.377239   
      7. B(H   9,C   4)                  1.0958         0.352486   
      8. B(H  10,C   4)                  1.0971         0.350884   
      9. B(C  11,C   8)                  1.5251         0.380383   
     10. B(C  11,H   2)                  1.0972         0.350679   
     11. B(H  12,C   8)                  1.0970         0.350940   
     12. B(H  13,C   8)                  1.0958         0.352544   
     13. B(C  14,C  11)                  1.5229         0.383380   
     14. B(C  14,F   5)                  1.3606         0.579179   
     15. B(C  14,C   1)                  1.5231         0.383217   
     16. B(H  15,C  11)                  1.0959         0.352331   
     17. B(H  16,C   1)                  1.0972         0.350691   
     18. B(H  17,C  14)                  1.0958         0.352445   
     19. A(C   4,C   0,H   6)          109.3686         0.323447   
     20. A(C   1,C   0,H   7)          109.7075         0.324144   
     21. A(H   6,C   0,H   7)          106.9665         0.288705   
     22. A(C   1,C   0,C   4)          111.6112         0.365052   
     23. A(C   4,C   0,H   7)          109.6717         0.323680   
     24. A(C   1,C   0,H   6)          109.4012         0.323911   
     25. A(C   0,C   1,H   3)          110.1690         0.324111   
     26. A(C   0,C   1,H  16)          109.9483         0.323869   
     27. A(H   3,C   1,C  14)          109.6104         0.324509   
     28. A(C   0,C   1,C  14)          111.5375         0.366066   
     29. A(H   3,C   1,H  16)          106.0122         0.288641   
     30. A(C  14,C   1,H  16)          109.4100         0.324266   
     31. A(H   9,C   4,H  10)          106.9365         0.288690   
     32. A(C   8,C   4,H  10)          109.3283         0.323459   
     33. A(C   0,C   4,H  10)          109.3295         0.323434   
     34. A(C   8,C   4,H   9)          109.6532         0.323701   
     35. A(C   0,C   4,H   9)          109.6495         0.323676   
     36. A(C   0,C   4,C   8)          111.8189         0.364536   
     37. A(C   4,C   8,C  11)          111.5601         0.365085   
     38. A(H  12,C   8,H  13)          106.9730         0.288705   
     39. A(C  11,C   8,H  13)          109.7200         0.324151   
     40. A(C   4,C   8,H  13)          109.6861         0.323710   
     41. A(C  11,C   8,H  12)          109.4060         0.323909   
     42. A(C   4,C   8,H  12)          109.3840         0.323468   
     43. A(H   2,C  11,C   8)          109.9513         0.323869   
     44. A(C   8,C  11,H  15)          110.1852         0.324119   
     45. A(H   2,C  11,H  15)          106.0196         0.288644   
     46. A(C   8,C  11,C  14)          111.4852         0.366096   
     47. A(C  14,C  11,H  15)          109.6259         0.324537   
     48. A(H   2,C  11,C  14)          109.4233         0.324287   
     49. A(F   5,C  14,C  11)          108.6643         0.389564   
     50. A(C   1,C  14,C  11)          111.7880         0.366561   
     51. A(C   1,C  14,F   5)          108.6618         0.389535   
     52. A(C  11,C  14,H  17)          110.1085         0.324554   
     53. A(F   5,C  14,H  17)          107.3835         0.344051   
     54. A(C   1,C  14,H  17)          110.1100         0.324532   
     55. D(C  14,C   1,C   0,H   7)   -175.8296         0.011530   
     56. D(H   3,C   1,C   0,C   4)   -176.0211         0.011530   
     57. D(C  14,C   1,C   0,C   4)    -54.0594         0.011530   
     58. D(C  14,C   1,C   0,H   6)     67.1196         0.011530   
     59. D(H   3,C   1,C   0,H   7)     62.2087         0.011530   
     60. D(H   3,C   1,C   0,H   6)    -54.8421         0.011530   
     61. D(C   8,C   4,C   0,C   1)     53.8255         0.011341   
     62. D(H   9,C   4,C   0,H   7)    -62.5382         0.011341   
     63. D(H   9,C   4,C   0,H   6)     54.4730         0.011341   
     64. D(H   9,C   4,C   0,C   1)    175.6709         0.011341   
     65. D(C   8,C   4,C   0,H   6)    -67.3725         0.011341   
     66. D(C   8,C   4,C   0,H   7)    175.6164         0.011341   
     67. D(C  11,C   8,C   4,H   9)   -175.7830         0.011351   
     68. D(C  11,C   8,C   4,C   0)    -53.9397         0.011351   
     69. D(C  11,C   8,C   4,H  10)     67.2760         0.011351   
     70. D(H  12,C   8,C   4,H  10)   -171.5428         0.011351   
     71. D(H  12,C   8,C   4,H   9)    -54.6019         0.011351   
     72. D(H  12,C   8,C   4,C   0)     67.2414         0.011351   
     73. D(C  14,C  11,C   8,H  13)    176.0535         0.011531   
     74. D(C  14,C  11,C   8,H  12)    -66.8778         0.011531   
     75. D(C  14,C  11,C   8,C   4)     54.2905         0.011531   
     76. D(H   2,C  11,C   8,H  13)     54.5143         0.011531   
     77. D(H   2,C  11,C   8,H  12)    171.5830         0.011531   
     78. D(H   2,C  11,C   8,C   4)    -67.2487         0.011531   
     79. D(C  11,C  14,C   1,H  16)    -67.1734         0.011694   
     80. D(C  11,C  14,C   1,H   3)    176.9770         0.011694   
     81. D(C  11,C  14,C   1,C   0)     54.6934         0.011694   
     82. D(F   5,C  14,C   1,H  16)     52.7454         0.011694   
     83. D(F   5,C  14,C   1,H   3)    -63.1042         0.011694   
     84. D(C   1,C  14,C  11,H   2)     67.0378         0.011704   
     85. D(F   5,C  14,C   1,C   0)    174.6122         0.011694   
     86. D(F   5,C  14,C  11,H  15)     62.9954         0.011704   
     87. D(F   5,C  14,C  11,C   8)   -174.7248         0.011704   
     88. D(F   5,C  14,C  11,H   2)    -52.8795         0.011704   
     89. D(C   1,C  14,C  11,H  15)   -177.0873         0.011704   
     90. D(C   1,C  14,C  11,C   8)    -54.8074         0.011704   
    -----------------------------------------------------------------

Number of atoms                         .... 18
Number of degrees of freedom            .... 90


         *************************************************************
         *                GEOMETRY OPTIMIZATION CYCLE   1            *
         *************************************************************
---------------------------------
CARTESIAN COORDINATES (ANGSTROEM)
---------------------------------
  C     -4.257341    2.529246   -0.270542
  C     -4.266955    1.062796    0.148204
  H     -1.732251    1.003864    1.380579
  H     -5.122990    0.546987   -0.301560
  C     -3.023265    3.257355    0.258693
  F     -2.996917   -0.905367    0.251218
  H     -4.277370    2.595732   -1.365334
  H     -5.163413    3.024299    0.096509
  C     -1.731151    2.544611   -0.135279
  H     -3.009061    4.284213   -0.123637
  H     -3.082187    3.324239    1.352123
  C     -1.748676    1.078990    0.286061
  H     -1.596118    2.609868   -1.221993
  H     -0.875177    3.051272    0.324418
  C     -2.977446    0.358383   -0.252658
  H     -0.841968    0.573601   -0.065422
  H     -4.402833    0.984471    1.234144
  H     -2.917152    0.274958   -1.343662

----------------------------
CARTESIAN COORDINATES (A.U.)
----------------------------
  NO LB      ZA    FRAG     MASS         X           Y           Z
   0 C     6.0000    0    12.011   -8.045209    4.779582   -0.511250
   1 C     6.0000    0    12.011   -8.063376    2.008393    0.280065
   2 H     1.0000    0     1.008   -3.273480    1.897028    2.608916
   3 H     1.0000    0     1.008   -9.681048    1.033656   -0.569866
   4 C     6.0000    0    12.011   -5.713143    6.155509    0.488859
   5 F     9.0000    0    18.998   -5.663352   -1.710896    0.474733
   6 H     1.0000    0     1.008   -8.083058    4.905223   -2.580107
   7 H     1.0000    0     1.008   -9.757436    5.715097    0.182376
   8 C     6.0000    0    12.011   -3.271401    4.808618   -0.255640
   9 H     1.0000    0     1.008   -5.686301    8.095989   -0.233640
  10 H     1.0000    0     1.008   -5.824489    6.281901    2.555142
  11 C     6.0000    0    12.011   -3.304519    2.038996    0.540577
  12 H     1.0000    0     1.008   -3.016226    4.931936   -2.309232
  13 H     1.0000    0     1.008   -1.653845    5.766068    0.613061
  14 C     6.0000    0    12.011   -5.626558    0.677246   -0.477454
  15 H     1.0000    0     1.008   -1.591089    1.083949   -0.123630
  16 H     1.0000    0     1.008   -8.320149    1.860381    2.332194
  17 H     1.0000    0     1.008   -5.512618    0.519595   -2.539153

--------------------------------
INTERNAL COORDINATES (ANGSTROEM)
--------------------------------
 C      0   0   0     0.000000000000     0.00000000     0.00000000
 C      1   0   0     1.525095486851     0.00000000     0.00000000
 H      2   1   0     2.819032722205    97.72768068     0.00000000
 H      2   1   3     1.095966469105   110.16900249   189.18655736
 C      1   2   3     1.527473723140   111.61118292   354.79238021
 F      2   1   3     2.344626622772   144.66704768   316.26969008
 H      1   2   3     1.096991828730   109.40124506   115.97129984
 H      1   2   3     1.095796686705   109.70752324   233.02215334
 C      5   1   2     1.527342965845   111.81892527    53.82546787
 H      5   1   2     1.095817199482   109.64947448   175.67091960
 H      5   1   2     1.097057170999   109.32950932   292.61038622
 C      3   2   1     1.097216181445    63.19351649   288.38822479
 H      9   5   1     1.097013994867   109.38404487    67.24141126
 H      9   5   1     1.095772873093   109.68614468   184.27768380
 C      6   2   1     1.360637426252    37.98418862   351.31379770
 H     12   3   2     1.095936922397   106.01961042   210.68228476
 H      2   1   3     1.097207054347   109.94830998    72.70344846
 H     15   6   2     1.095848906135   107.38351825   240.92160118

---------------------------
INTERNAL COORDINATES (A.U.)
---------------------------
 C      0   0   0     0.000000000000     0.00000000     0.00000000
 C      1   0   0     2.882012798227     0.00000000     0.00000000
 H      2   1   0     5.327199807531    97.72768068     0.00000000
 H      2   1   3     2.071076478569   110.16900249   189.18655736
 C      1   2   3     2.886507013495   111.61118292   354.79238021
 F      2   1   3     4.430702203339   144.66704768   316.26969008
 H      1   2   3     2.073014127450   109.40124506   115.97129984
 H      1   2   3     2.070755636331   109.70752324   233.02215334
 C      5   1   2     2.886259918018   111.81892527    53.82546787
 H      5   1   2     2.070794399861   109.64947448   175.67091960
 H      5   1   2     2.073137606442   109.32950932   292.61038622
 C      3   2   1     2.073438092638    63.19351649   288.38822479
 H      9   5   1     2.073056015377   109.38404487    67.24141126
 H      9   5   1     2.070710635125   109.68614468   184.27768380
 C      6   2   1     2.571232103179    37.98418862   351.31379770
 H     12   3   2     2.071020643384   106.01961042   210.68228476
 H      2   1   3     2.073420844922   109.94830998    72.70344846
 H     15   6   2     2.070854316752   107.38351825   240.92160118

---------------------
BASIS SET INFORMATION
---------------------
There are 3 groups of distinct atoms

 Group   1 Type C   : 11s6p2d1f contracted to 5s3p2d1f pattern {62111/411/11/1}
 Group   2 Type H   : 5s1p contracted to 3s1p pattern {311/1}
 Group   3 Type F   : 11s6p2d1f contracted to 5s3p2d1f pattern {62111/411/11/1}

Atom   0C    basis set group =>   1
Atom   1C    basis set group =>   1
Atom   2H    basis set group =>   2
Atom   3H    basis set group =>   2
Atom   4C    basis set group =>   1
Atom   5F    basis set group =>   3
Atom   6H    basis set group =>   2
Atom   7H    basis set group =>   2
Atom   8C    basis set group =>   1
Atom   9H    basis set group =>   2
Atom  10H    basis set group =>   2
Atom  11C    basis set group =>   1
Atom  12H    basis set group =>   2
Atom  13H    basis set group =>   2
Atom  14C    basis set group =>   1
Atom  15H    basis set group =>   2
Atom  16H    basis set group =>   2
Atom  17H    basis set group =>   2
---------------------------------
AUXILIARY/J BASIS SET INFORMATION
---------------------------------
There are 3 groups of distinct atoms

 Group   1 Type C   : 12s5p4d2f1g contracted to 6s4p3d1f1g pattern {711111/2111/211/2/1}
 Group   2 Type H   : 5s2p1d contracted to 3s1p1d pattern {311/2/1}
 Group   3 Type F   : 12s5p4d2f1g contracted to 6s4p3d1f1g pattern {711111/2111/211/2/1}

Atom   0C    basis set group =>   1
Atom   1C    basis set group =>   1
Atom   2H    basis set group =>   2
Atom   3H    basis set group =>   2
Atom   4C    basis set group =>   1
Atom   5F    basis set group =>   3
Atom   6H    basis set group =>   2
Atom   7H    basis set group =>   2
Atom   8C    basis set group =>   1
Atom   9H    basis set group =>   2
Atom  10H    basis set group =>   2
Atom  11C    basis set group =>   1
Atom  12H    basis set group =>   2
Atom  13H    basis set group =>   2
Atom  14C    basis set group =>   1
Atom  15H    basis set group =>   2
Atom  16H    basis set group =>   2
Atom  17H    basis set group =>   2
------------------------------------------------------------------------------
                             ORCA STARTUP CALCULATIONS
                           -- RI-GTO INTEGRALS CHOSEN --
------------------------------------------------------------------------------
------------------------------------------------------------------------------
                   ___                                                        
                  /   \      - P O W E R E D   B Y -                         
                 /     \                                                     
                 |  |  |   _    _      __       _____    __    __             
                 |  |  |  | |  | |    /  \     |  _  \  |  |  /  |          
                  \  \/   | |  | |   /    \    | | | |  |  | /  /          
                 / \  \   | |__| |  /  /\  \   | |_| |  |  |/  /          
                |  |  |   |  __  | /  /__\  \  |    /   |      \           
                |  |  |   | |  | | |   __   |  |    \   |  |\   \          
                \     /   | |  | | |  |  |  |  | |\  \  |  | \   \       
                 \___/    |_|  |_| |__|  |__|  |_| \__\ |__|  \__/        
                                                                              
                      - O R C A' S   B I G   F R I E N D -                    
                                      &                                       
                       - I N T E G R A L  F E E D E R -                       
                                                                              
 v1 FN, 2020, v2 2021, v3 2022-2024                                           
------------------------------------------------------------------------------


----------------------
SHARK INTEGRAL PACKAGE
----------------------

Number of atoms                             ...     18
Number of basis functions                   ...    283
Number of shells                            ...    121
Maximum angular momentum                    ...      3
Integral batch strategy                     ... SHARK/LIBINT Hybrid
RI-J (if used) integral strategy            ... SPLIT-RIJ (Revised 2003 algorithm where possible)
Printlevel                                  ...      1
Contraction scheme used                     ... SEGMENTED contraction
Prescreening option                         ... SCHWARTZ
   Thresh                                   ... 2.500e-11
   Tcut                                     ... 2.500e-12
   Tpresel                                  ... 2.500e-12 
Coulomb Range Separation                    ... NOT USED
Exchange Range Separation                   ... NOT USED
Multipole approximations                    ... NOT USED
Finite Nucleus Model                        ... NOT USED
CABS basis                                  ... NOT available
Auxiliary Coulomb fitting basis             ... AVAILABLE
   # of basis functions in Aux-J            ...    464
   # of shells in Aux-J                     ...    160
   Maximum angular momentum in Aux-J        ...      4
Auxiliary J/K fitting basis                 ... NOT available
Auxiliary Correlation fitting basis         ... NOT available
Auxiliary 'external' fitting basis          ... NOT available

Checking pre-screening integrals            ... done (  0.0 sec) Dimension = 121
   => SHARK Basis and OBASIS are compatible. Storing Pre-screening
Shell pair information
Shell pair cut-off parameter TPreSel        ...   2.5e-12
Total number of shell pairs                 ...      7381
Shell pairs after pre-screening             ...      6995
Total number of primitive shell pairs       ...     21508
Primitive shell pairs kept                  ...     15808
          la=0 lb=0:   2158 shell pairs
          la=1 lb=0:   2080 shell pairs
          la=1 lb=1:    518 shell pairs
          la=2 lb=0:    906 shell pairs
          la=2 lb=1:    435 shell pairs
          la=2 lb=2:    102 shell pairs
          la=3 lb=0:    456 shell pairs
          la=3 lb=1:    216 shell pairs
          la=3 lb=2:     96 shell pairs
          la=3 lb=3:     28 shell pairs

Checking whether 4 symmetric matrices of dimension 283 fit in memory
:Max Core in MB      =  16384.00
 MB in use           =     10.20
 MB left             =  16373.80
 MB needed           =      1.23
 Data fit in memory  = YES
Calculating RI/J V-Matrix + Cholesky decomp.... done (  0.0 sec)
Calculating Nuclear repulsion               ... done (  0.0 sec) ENN=    329.927861100271 Eh

Diagonalization of the overlap matrix:
Smallest eigenvalue                        ... 1.255e-04
Time for diagonalization                   ...    0.004 sec
Threshold for overlap eigenvalues          ... 1.000e-07
Number of eigenvalues below threshold      ... 0
Time for construction of square roots      ...    0.001 sec
Total time needed                          ...    0.005 sec

-------------------
DFT GRID GENERATION
-------------------

General Integration Accuracy     IntAcc      ... 4.388
Radial Grid Type                 RadialGrid  ... OptM3 with GC (2021)
Angular Grid (max. ang.)         AngularGrid ... 4 (Lebedev-302)
Angular grid pruning method      GridPruning ... 4 (adaptive)
Weight generation scheme         WeightScheme... mBecke (2022)
Basis function cutoff            BFCut       ... 1.0000e-11
Integration weight cutoff        WCut        ... 1.0000e-14
Partially contracted basis set               ... off
Rotationally invariant grid construction     ... off
Angular grids for H and He will be reduced by one unit

Total number of grid points                  ...    77038
Total number of batches                      ...     1215
Average number of points per batch           ...       63
Average number of grid points per atom       ...     4280
Grids setup in   0.3 sec
Initializing property integral containers    ... done (  0.0 sec)

SHARK setup successfully completed in   0.4 seconds

Maximum memory used throughout the entire STARTUP-calculation: 43.6 MB
-------------------------------------------------------------------------------
                                 ORCA GUESS
                   Start orbitals & Density for SCF / CASSCF
-------------------------------------------------------------------------------

------------
SCF SETTINGS
------------
Hamiltonian:
 Density Functional     Method          .... DFT(GTOs)
 Exchange Functional    Exchange        .... PBE
   PBE kappa parameter   XKappa         ....  1.245000
   PBE mue parameter    XMuePBE         ....  0.219520
 Correlation Functional Correlation     .... PBE
   PBE beta parameter  CBetaPBE         ....  0.066725
 LDA part of GGA corr.  LDAOpt          .... PW91-LDA
 Gradients option       PostSCFGGA      .... off
   NL short-range parameter             ....  3.700000
 RI-approximation to the Coulomb term is turned on
   Number of AuxJ basis functions       .... 464


General Settings:
 Integral files         IntName         .... job
 Hartree-Fock type      HFTyp           .... RHF
 Total Charge           Charge          ....    0
 Multiplicity           Mult            ....    1
 Number of Electrons    NEL             ....   56
 Basis Dimension        Dim             ....  283
 Nuclear Repulsion      ENuc            ....    329.9278611003 Eh

Convergence Acceleration:
 AO-DIIS                CNVDIIS         .... on
   Start iteration      DIISMaxIt       ....    12
   Startup error        DIISStart       ....  0.200000
   # of expansion vecs  DIISMaxEq       ....     5
   Bias factor          DIISBfac        ....   1.050
   Max. coefficient     DIISMaxC        ....  10.000
 MO-DIIS                CNVKDIIS        .... off
 Trust-Rad. Augm. Hess. CNVTRAH         .... auto
   Auto Start mean grad. ratio tolernc. ....  1.125000
   Auto Start start iteration           ....    50
   Auto Start num. interpolation iter.  ....    10
   Max. Number of Micro iterations      ....    24
   Max. Number of Macro iterations      .... Maxiter - #DIIS iter
   Number of Davidson start vectors     ....     2
   Converg. threshold    (grad. norm)   ....   1.000e-05
   Grad. Scal. Fac. for Micro threshold ....   0.100
   Minimum threshold for Micro iter.    ....   1.000e-02
   NR start threshold (gradient norm)   ....   1.000e-04
   Initial trust radius                 ....   0.400
   Minimum AH scaling param. (alpha)    ....   1.000
   Maximum AH scaling param. (alpha)    .... 1000.000
   Quad. conv. algorithm                .... NR
   White noise on init. David. guess    .... on
   Maximum white noise                  ....   0.010
   Pseudo random numbers                .... off
   Inactive MOs                         .... canonical
   Orbital update algorithm             .... Taylor
   Preconditioner                       .... Diag
   Full preconditioner red. dimension   ....   250
 SOSCF                 CNVSOSCF           .... on
   Start iteration     SOSCFMaxIt         ....   150
   Startup grad/error  SOSCFStart         ....  0.003300
   Hessian update      SOSCFHessUp        .... L-BFGS
   Autom. constraints  SOSCFAutoConstrain .... off
 Level Shifting         CNVShift        .... on
   Level shift para.    LevelShift      ....    0.2500
   Turn off err/grad.   ShiftErr        ....    0.0010
 Zerner damping         CNVZerner       .... off
 Static damping         CNVDamp         .... on
   Fraction old density DampFac         ....    0.7000
   Max. Damping (<1)    DampMax         ....    0.9800
   Min. Damping (>=0)   DampMin         ....    0.0000
   Turn off err/grad.   DampErr         ....    0.1000

SCF Procedure:
 Maximum # iterations   MaxIter         ....   125
 SCF integral mode      SCFMode         .... Direct
   Integral package                     .... SHARK and LIBINT hybrid scheme
 Reset frequency        DirectResetFreq ....    20
 Integral Threshold     Thresh          ....  2.500e-11 Eh
 Primitive CutOff       TCut            ....  2.500e-12 Eh

Convergence Tolerance:
 Convergence Check Mode ConvCheckMode   .... Total+1el-Energy
 Convergence forced     ConvForced      .... 0
 Energy Change          TolE            ....  1.000e-08 Eh
 1-El. energy change                    ....  1.000e-05 Eh
 Orbital Gradient       TolG            ....  1.000e-05
 Orbital Rotation angle TolX            ....  1.000e-05
 DIIS Error             TolErr          ....  5.000e-07

------------------------------
INITIAL GUESS: MODEL POTENTIAL
------------------------------
Loading Hartree-Fock densities                     ... done
Calculating cut-offs                               ... done
Initializing the effective Hamiltonian             ... done
Setting up the integral package (SHARK)            ... done
Starting the Coulomb interaction                   ... done (   0.1 sec)
Making the grid                                    ... done (   0.1 sec)
Mapping shells                                     ... done
Starting the XC term evaluation                    ... done (   0.2 sec)
  promolecular density results
     # of electrons  =     55.994317473
     EX              =    -44.259362944
     EC              =     -1.865219355
     EX+EC           =    -46.124582299
Transforming the Hamiltonian                       ... done (   0.0 sec)
Diagonalizing the Hamiltonian                      ... done (   0.0 sec)
Back transforming the eigenvectors                 ... done (   0.0 sec)
Now organizing SCF variables                       ... done
                      ------------------
                      INITIAL GUESS DONE (   0.4 sec)
                      ------------------
             **** ENERGY FILE WAS UPDATED (job.en.tmp) ****
Finished Guess after   0.4 sec
Maximum memory used throughout the entire GUESS-calculation: 23.9 MB

-------------------------------------------------------------------------------------------
                                      ORCA LEAN-SCF
                              memory conserving SCF solver
-------------------------------------------------------------------------------------------

----------------------------------------D-I-I-S--------------------------------------------
Iteration    Energy (Eh)           Delta-E    RMSDP     MaxDP     DIISErr   Damp  Time(sec)
-------------------------------------------------------------------------------------------
               ***  Starting incremental Fock matrix formation  ***
    1    -334.9565963575736873     0.00e+00  1.82e-03  7.86e-02  1.46e-01  0.700   1.0
    2    -335.0419030359041130    -8.53e-02  1.61e-03  8.10e-02  6.61e-02  0.700   1.0
                               ***Turning on AO-DIIS***
    3    -335.0708340912025847    -2.89e-02  7.40e-04  3.52e-02  1.95e-02  0.700   0.9
    4    -335.0881480312188501    -1.73e-02  1.02e-03  3.62e-02  9.73e-03  0.000   0.8
    5    -335.1280527042059134    -3.99e-02  3.89e-04  2.25e-02  7.12e-03  0.000   0.8
                              *** Initializing SOSCF ***
---------------------------------------S-O-S-C-F--------------------------------------
Iteration    Energy (Eh)           Delta-E    RMSDP     MaxDP     MaxGrad    Time(sec)
--------------------------------------------------------------------------------------
    6    -335.1285763115154737    -5.24e-04  1.40e-04  6.01e-03  1.85e-03     0.8
               *** Restarting incremental Fock matrix formation ***
    7    -335.1286158888814839    -3.96e-05  1.69e-04  9.83e-03  4.67e-04     1.0
    8    -335.1286023429934744     1.35e-05  7.38e-05  4.53e-03  9.03e-04     0.8
    9    -335.1286238268431248    -2.15e-05  1.46e-05  5.64e-04  5.95e-05     0.7
   10    -335.1286236915665881     1.35e-07  5.77e-06  2.29e-04  7.77e-05     0.7
   11    -335.1286239894936330    -2.98e-07  1.78e-06  6.90e-05  1.15e-05     0.7
   12    -335.1286239825539610     6.94e-09  8.62e-07  3.70e-05  9.04e-06     0.7
                 **** Energy Check signals convergence ****

               *****************************************************
               *                     SUCCESS                       *
               *           SCF CONVERGED AFTER  12 CYCLES          *
               *****************************************************

             **** ENERGY FILE WAS UPDATED (job.en.tmp) ****

----------------
TOTAL SCF ENERGY
----------------

Total Energy       :       -335.12862399776594 Eh           -9119.31348 eV

Components:
Nuclear Repulsion  :        329.92786110027083 Eh            8977.79352 eV
Electronic Energy  :       -665.05648509803677 Eh          -18097.10700 eV
One Electron Energy:      -1109.53191356300567 Eh          -30191.89829 eV
Two Electron Energy:        444.47542846496884 Eh           12094.79130 eV

Virial components:
Potential Energy   :       -669.05786020170399 Eh          -18205.98995 eV
Kinetic Energy     :        333.92923620393805 Eh            9086.67647 eV
Virial Ratio       :          2.00359174239268

DFT components:
N(Alpha)           :       28.000012643061 electrons
N(Beta)            :       28.000012643061 electrons
N(Total)           :       56.000025286121 electrons
E(X)               :      -45.305655754007 Eh       
E(C)               :       -1.857242097406 Eh       
E(XC)              :      -47.162897851413 Eh       

---------------
SCF CONVERGENCE
---------------

  Last Energy change         ...   -6.9397e-09  Tolerance :   1.0000e-08
  Last MAX-Density change    ...    3.6963e-05  Tolerance :   1.0000e-07
  Last RMS-Density change    ...    8.6194e-07  Tolerance :   5.0000e-09
  Last DIIS Error            ...    1.8461e-03  Tolerance :   5.0000e-07
  Last Orbital Gradient      ...    9.0418e-06  Tolerance :   1.0000e-05
  Last Orbital Rotation      ...    8.6210e-06  Tolerance :   1.0000e-05


----------------
ORBITAL ENERGIES
----------------

  NO   OCC          E(Eh)            E(eV) 
   0   2.0000     -24.240682      -659.6225 
   1   2.0000      -9.957224      -270.9498 
   2   2.0000      -9.891612      -269.1644 
   3   2.0000      -9.891603      -269.1642 
   4   2.0000      -9.889019      -269.0939 
   5   2.0000      -9.887542      -269.0537 
   6   2.0000      -9.887521      -269.0531 
   7   2.0000      -1.093398       -29.7529 
   8   2.0000      -0.761495       -20.7213 
   9   2.0000      -0.680670       -18.5220 
  10   2.0000      -0.670053       -18.2331 
  11   2.0000      -0.557757       -15.1773 
  12   2.0000      -0.551866       -15.0170 
  13   2.0000      -0.505507       -13.7555 
  14   2.0000      -0.451627       -12.2894 
  15   2.0000      -0.433643       -11.8000 
  16   2.0000      -0.406830       -11.0704 
  17   2.0000      -0.404481       -11.0065 
  18   2.0000      -0.379991       -10.3401 
  19   2.0000      -0.368509       -10.0276 
  20   2.0000      -0.339523        -9.2389 
  21   2.0000      -0.337970        -9.1966 
  22   2.0000      -0.306661        -8.3447 
  23   2.0000      -0.299542        -8.1509 
  24   2.0000      -0.293435        -7.9848 
  25   2.0000      -0.285607        -7.7718 
  26   2.0000      -0.263781        -7.1778 
  27   2.0000      -0.252207        -6.8629 
  28   0.0000       0.012278         0.3341 
  29   0.0000       0.028893         0.7862 
  30   0.0000       0.044444         1.2094 
  31   0.0000       0.054417         1.4808 
  32   0.0000       0.070267         1.9121 
  33   0.0000       0.085404         2.3240 
  34   0.0000       0.087743         2.3876 
  35   0.0000       0.090438         2.4609 
  36   0.0000       0.092502         2.5171 
  37   0.0000       0.108684         2.9574 
  38   0.0000       0.110087         2.9956 
*Only the first 10 virtual orbitals were printed.

                    ********************************
                    * MULLIKEN POPULATION ANALYSIS *
                    ********************************

-----------------------
MULLIKEN ATOMIC CHARGES
-----------------------
   0 C :   -0.150005
   1 C :   -0.129930
   2 H :    0.063962
   3 H :    0.082675
   4 C :   -0.123925
   5 F :   -0.195675
   6 H :    0.064614
   7 H :    0.081127
   8 C :   -0.149621
   9 H :    0.079469
  10 H :    0.061060
  11 C :   -0.129871
  12 H :    0.064733
  13 H :    0.081054
  14 C :    0.130598
  15 H :    0.082734
  16 H :    0.064253
  17 H :    0.022748
Sum of atomic charges:   -0.0000000

--------------------------------
MULLIKEN REDUCED ORBITAL CHARGES
--------------------------------
  0 C s       :     3.135787  s :     3.135787
      pz      :     0.987876  p :     2.915985
      px      :     0.987956
      py      :     0.940153
      dz2     :     0.022390  d :     0.092898
      dxz     :     0.007434
      dyz     :     0.014735
      dx2y2   :     0.020739
      dxy     :     0.027600
      f0      :     0.000879  f :     0.005335
      f+1     :     0.000446
      f-1     :     0.000641
      f+2     :     0.000612
      f-2     :     0.000430
      f+3     :     0.001412
      f-3     :     0.000913

  1 C s       :     3.104758  s :     3.104758
      pz      :     1.007185  p :     2.934247
      px      :     0.975979
      py      :     0.951083
      dz2     :     0.018871  d :     0.085703
      dxz     :     0.009400
      dyz     :     0.014706
      dx2y2   :     0.016732
      dxy     :     0.025994
      f0      :     0.000892  f :     0.005222
      f+1     :     0.000395
      f-1     :     0.000614
      f+2     :     0.000500
      f-2     :     0.000467
      f+3     :     0.001419
      f-3     :     0.000935

  2 H s       :     0.914718  s :     0.914718
      pz      :     0.012012  p :     0.021319
      px      :     0.004623
      py      :     0.004684

  3 H s       :     0.895817  s :     0.895817
      pz      :     0.005604  p :     0.021508
      px      :     0.009433
      py      :     0.006471

  4 C s       :     3.126274  s :     3.126274
      pz      :     0.981949  p :     2.898940
      px      :     0.919132
      py      :     0.997859
      dz2     :     0.021825  d :     0.093358
      dxz     :     0.017638
      dyz     :     0.005221
      dx2y2   :     0.032301
      dxy     :     0.016374
      f0      :     0.000883  f :     0.005354
      f+1     :     0.000819
      f-1     :     0.000245
      f+2     :     0.000463
      f-2     :     0.000589
      f+3     :     0.001448
      f-3     :     0.000907

  5 F s       :     3.902856  s :     3.902856
      pz      :     1.838064  p :     5.276900
      px      :     1.903514
      py      :     1.535322
      dz2     :     0.002255  d :     0.015294
      dxz     :     0.000497
      dyz     :     0.004503
      dx2y2   :     0.004720
      dxy     :     0.003319
      f0      :     0.000064  f :     0.000625
      f+1     :     0.000002
      f-1     :     0.000115
      f+2     :     0.000150
      f-2     :     0.000041
      f+3     :     0.000109
      f-3     :     0.000143

  6 H s       :     0.914167  s :     0.914167
      pz      :     0.011769  p :     0.021219
      px      :     0.004731
      py      :     0.004718

  7 H s       :     0.897500  s :     0.897500
      pz      :     0.005223  p :     0.021373
      px      :     0.009875
      py      :     0.006275

  8 C s       :     3.135770  s :     3.135770
      pz      :     0.989320  p :     2.915653
      px      :     0.985157
      py      :     0.941176
      dz2     :     0.020003  d :     0.092861
      dxz     :     0.009882
      dyz     :     0.014375
      dx2y2   :     0.020462
      dxy     :     0.028139
      f0      :     0.000903  f :     0.005336
      f+1     :     0.000385
      f-1     :     0.000597
      f+2     :     0.000567
      f-2     :     0.000482
      f+3     :     0.001499
      f-3     :     0.000903

  9 H s       :     0.899196  s :     0.899196
      pz      :     0.005261  p :     0.021335
      px      :     0.004785
      py      :     0.011289

 10 H s       :     0.917737  s :     0.917737
      pz      :     0.011770  p :     0.021204
      px      :     0.004623
      py      :     0.004812

 11 C s       :     3.104709  s :     3.104709
      pz      :     1.003163  p :     2.934230
      px      :     0.980908
      py      :     0.950159
      dz2     :     0.020962  d :     0.085707
      dxz     :     0.007009
      dyz     :     0.015019
      dx2y2   :     0.017147
      dxy     :     0.025570
      f0      :     0.000880  f :     0.005224
      f+1     :     0.000429
      f-1     :     0.000663
      f+2     :     0.000520
      f-2     :     0.000427
      f+3     :     0.001359
      f-3     :     0.000945

 12 H s       :     0.914055  s :     0.914055
      pz      :     0.011565  p :     0.021211
      px      :     0.004927
      py      :     0.004719

 13 H s       :     0.897568  s :     0.897568
      pz      :     0.005625  p :     0.021378
      px      :     0.009403
      py      :     0.006350

 14 C s       :     3.157921  s :     3.157921
      pz      :     0.901961  p :     2.516031
      px      :     0.963952
      py      :     0.650119
      dz2     :     0.039144  d :     0.180453
      dxz     :     0.023360
      dyz     :     0.028542
      dx2y2   :     0.044168
      dxy     :     0.045239
      f0      :     0.001250  f :     0.014996
      f+1     :     0.000923
      f-1     :     0.002804
      f+2     :     0.001989
      f-2     :     0.001775
      f+3     :     0.004353
      f-3     :     0.001902

 15 H s       :     0.895762  s :     0.895762
      pz      :     0.005185  p :     0.021504
      px      :     0.009919
      py      :     0.006400

 16 H s       :     0.914437  s :     0.914437
      pz      :     0.011792  p :     0.021310
      px      :     0.004824
      py      :     0.004694

 17 H s       :     0.956728  s :     0.956728
      pz      :     0.012948  p :     0.020524
      px      :     0.004650
      py      :     0.002926



                     *******************************
                     * LOEWDIN POPULATION ANALYSIS *
                     *******************************

----------------------
LOEWDIN ATOMIC CHARGES
----------------------
   0 C :   -0.259508
   1 C :   -0.242940
   2 H :    0.138522
   3 H :    0.136324
   4 C :   -0.262764
   5 F :    0.149076
   6 H :    0.134613
   7 H :    0.135136
   8 C :   -0.259511
   9 H :    0.134008
  10 H :    0.134613
  11 C :   -0.242947
  12 H :    0.134644
  13 H :    0.135102
  14 C :   -0.369942
  15 H :    0.136302
  16 H :    0.138538
  17 H :    0.130733

-------------------------------
LOEWDIN REDUCED ORBITAL CHARGES
-------------------------------
  0 C s       :     2.776566  s :     2.776566
      pz      :     1.023327  p :     3.043537
      px      :     1.010347
      py      :     1.009863
      dz2     :     0.104437  d :     0.400501
      dxz     :     0.038690
      dyz     :     0.059672
      dx2y2   :     0.090421
      dxy     :     0.107282
      f0      :     0.005182  f :     0.038904
      f+1     :     0.002787
      f-1     :     0.004167
      f+2     :     0.006685
      f-2     :     0.005797
      f+3     :     0.008168
      f-3     :     0.006119

  1 C s       :     2.781093  s :     2.781093
      pz      :     1.024869  p :     3.039194
      px      :     1.002178
      py      :     1.012147
      dz2     :     0.091885  d :     0.384681
      dxz     :     0.046432
      dyz     :     0.059545
      dx2y2   :     0.081496
      dxy     :     0.105323
      f0      :     0.005299  f :     0.037972
      f+1     :     0.002490
      f-1     :     0.003982
      f+2     :     0.005585
      f-2     :     0.006297
      f+3     :     0.008100
      f-3     :     0.006219

  2 H s       :     0.802131  s :     0.802131
      pz      :     0.033532  p :     0.059347
      px      :     0.012901
      py      :     0.012914

  3 H s       :     0.804241  s :     0.804241
      pz      :     0.016795  p :     0.059436
      px      :     0.025251
      py      :     0.017389

  4 C s       :     2.778167  s :     2.778167
      pz      :     1.022789  p :     3.045076
      px      :     1.017517
      py      :     1.004770
      dz2     :     0.102116  d :     0.400711
      dxz     :     0.067517
      dyz     :     0.032250
      dx2y2   :     0.120476
      dxy     :     0.078352
      f0      :     0.005232  f :     0.038810
      f+1     :     0.005108
      f-1     :     0.001699
      f+2     :     0.005912
      f-2     :     0.006465
      f+3     :     0.008331
      f-3     :     0.006063

  5 F s       :     3.600464  s :     3.600464
      pz      :     1.803022  p :     5.217232
      px      :     1.835842
      py      :     1.578368
      dz2     :     0.004768  d :     0.031747
      dxz     :     0.001052
      dyz     :     0.009338
      dx2y2   :     0.008788
      dxy     :     0.007801
      f0      :     0.000116  f :     0.001482
      f+1     :     0.000006
      f-1     :     0.000345
      f+2     :     0.000306
      f-2     :     0.000108
      f+3     :     0.000334
      f-3     :     0.000267

  6 H s       :     0.806378  s :     0.806378
      pz      :     0.032829  p :     0.059009
      px      :     0.013123
      py      :     0.013058

  7 H s       :     0.805829  s :     0.805829
      pz      :     0.015660  p :     0.059034
      px      :     0.026499
      py      :     0.016876

  8 C s       :     2.776539  s :     2.776539
      pz      :     1.023554  p :     3.043512
      px      :     1.010235
      py      :     1.009722
      dz2     :     0.094594  d :     0.400539
      dxz     :     0.048859
      dyz     :     0.058869
      dx2y2   :     0.089565
      dxy     :     0.108652
      f0      :     0.005451  f :     0.038921
      f+1     :     0.002366
      f-1     :     0.003962
      f+2     :     0.006220
      f-2     :     0.006083
      f+3     :     0.008816
      f-3     :     0.006024

  9 H s       :     0.806955  s :     0.806955
      pz      :     0.015812  p :     0.059037
      px      :     0.013119
      py      :     0.030106

 10 H s       :     0.806368  s :     0.806368
      pz      :     0.032836  p :     0.059019
      px      :     0.013160
      py      :     0.013023

 11 C s       :     2.781069  s :     2.781069
      pz      :     1.023588  p :     3.039164
      px      :     1.003408
      py      :     1.012168
      dz2     :     0.100741  d :     0.384729
      dxz     :     0.036801
      dyz     :     0.060405
      dx2y2   :     0.082555
      dxy     :     0.104227
      f0      :     0.005104  f :     0.037985
      f+1     :     0.002734
      f-1     :     0.004221
      f+2     :     0.005943
      f-2     :     0.006092
      f+3     :     0.007607
      f-3     :     0.006284

 12 H s       :     0.806349  s :     0.806349
      pz      :     0.032646  p :     0.059007
      px      :     0.013305
      py      :     0.013056

 13 H s       :     0.805861  s :     0.805861
      pz      :     0.016990  p :     0.059037
      px      :     0.024981
      py      :     0.017067

 14 C s       :     2.762237  s :     2.762237
      pz      :     0.981000  p :     2.796322
      px      :     1.038979
      py      :     0.776343
      dz2     :     0.165094  d :     0.702603
      dxz     :     0.073890
      dyz     :     0.118772
      dx2y2   :     0.173357
      dxy     :     0.171490
      f0      :     0.009195  f :     0.108781
      f+1     :     0.005368
      f-1     :     0.016170
      f+2     :     0.021486
      f-2     :     0.014654
      f+3     :     0.024409
      f-3     :     0.017499

 15 H s       :     0.804258  s :     0.804258
      pz      :     0.015410  p :     0.059440
      px      :     0.026816
      py      :     0.017214

 16 H s       :     0.802111  s :     0.802111
      pz      :     0.033322  p :     0.059351
      px      :     0.013104
      py      :     0.012925

 17 H s       :     0.812757  s :     0.812757
      pz      :     0.035192  p :     0.056511
      px      :     0.013341
      py      :     0.007977



                      *****************************
                      * MAYER POPULATION ANALYSIS *
                      *****************************

  NA   - Mulliken gross atomic population
  ZA   - Total nuclear charge
  QA   - Mulliken gross atomic charge
  VA   - Mayer's total valence
  BVA  - Mayer's bonded valence
  FA   - Mayer's free valence

  ATOM       NA         ZA         QA         VA         BVA        FA
  0 C      6.1500     6.0000    -0.1500     4.0529     4.0529    -0.0000
  1 C      6.1299     6.0000    -0.1299     3.9326     3.9326    -0.0000
  2 H      0.9360     1.0000     0.0640     0.9967     0.9967    -0.0000
  3 H      0.9173     1.0000     0.0827     0.9761     0.9761     0.0000
  4 C      6.1239     6.0000    -0.1239     4.0422     4.0422    -0.0000
  5 F      9.1957     9.0000    -0.1957     1.0852     1.0852    -0.0000
  6 H      0.9354     1.0000     0.0646     0.9806     0.9806    -0.0000
  7 H      0.9189     1.0000     0.0811     0.9706     0.9706    -0.0000
  8 C      6.1496     6.0000    -0.1496     4.0528     4.0528    -0.0000
  9 H      0.9205     1.0000     0.0795     0.9702     0.9702     0.0000
 10 H      0.9389     1.0000     0.0611     0.9808     0.9808     0.0000
 11 C      6.1299     6.0000    -0.1299     3.9329     3.9329    -0.0000
 12 H      0.9353     1.0000     0.0647     0.9807     0.9807     0.0000
 13 H      0.9189     1.0000     0.0811     0.9706     0.9706    -0.0000
 14 C      5.8694     6.0000     0.1306     4.2313     4.2313    -0.0000
 15 H      0.9173     1.0000     0.0827     0.9761     0.9761    -0.0000
 16 H      0.9357     1.0000     0.0643     0.9966     0.9966     0.0000
 17 H      0.9773     1.0000     0.0227     0.9641     0.9641    -0.0000

  Mayer bond orders larger than 0.100000
B(  0-C ,  1-C ) :   1.0177 B(  0-C ,  4-C ) :   1.0484 B(  0-C ,  6-H ) :   0.9460 
B(  0-C ,  7-H ) :   0.9366 B(  1-C ,  3-H ) :   0.9381 B(  1-C , 14-C ) :   1.0246 
B(  1-C , 16-H ) :   0.9353 B(  2-H , 11-C ) :   0.9353 B(  4-C ,  8-C ) :   1.0483 
B(  4-C ,  9-H ) :   0.9406 B(  4-C , 10-H ) :   0.9423 B(  5-F , 14-C ) :   1.1037 
B(  8-C , 11-C ) :   1.0176 B(  8-C , 12-H ) :   0.9460 B(  8-C , 13-H ) :   0.9366 
B( 11-C , 14-C ) :   1.0246 B( 11-C , 15-H ) :   0.9380 B( 14-C , 17-H ) :   0.9537 


-------
TIMINGS
-------

Total SCF time: 0 days 0 hours 0 min 10 sec 

Total time                  ....      10.496 sec
Sum of individual times     ....       9.835 sec  ( 93.7%)

SCF preparation             ....       0.022 sec  (  0.2%)
Fock matrix formation       ....       9.718 sec  ( 92.6%)
  Startup                   ....       0.002 sec  (  0.0% of F)
  Split-RI-J                ....       2.781 sec  ( 28.6% of F)
  XC integration            ....       7.562 sec  ( 77.8% of F)
    Basis function eval.    ....       2.420 sec  ( 32.0% of XC)
    Density eval.           ....       1.431 sec  ( 18.9% of XC)
    XC-Functional eval.     ....       0.156 sec  (  2.1% of XC)
    XC-Potential eval.      ....       3.414 sec  ( 45.1% of XC)
Diagonalization             ....       0.000 sec  (  0.0%)
Density matrix formation    ....       0.008 sec  (  0.1%)
Total Energy calculation    ....       0.008 sec  (  0.1%)
Population analysis         ....       0.004 sec  (  0.0%)
Orbital Transformation      ....       0.010 sec  (  0.1%)
Orbital Orthonormalization  ....       0.000 sec  (  0.0%)
DIIS solution               ....       0.045 sec  (  0.4%)
SOSCF solution              ....       0.019 sec  (  0.2%)
Finished LeanSCF after  10.5 sec

Maximum memory used throughout the entire LEANSCF-calculation: 30.6 MB

-------------------------   --------------------
FINAL SINGLE POINT ENERGY      -335.128623997766
-------------------------   --------------------

------------------------------------------------------------------------------
                         ORCA SCF GRADIENT CALCULATION
------------------------------------------------------------------------------

Nuc. rep. gradient        (SHARK) ... done (  0.0 sec)
HCore & Overlap gradient  (SHARK) ... done (  0.2 sec)
Split-RIJ-J gradient      (SHARK) ... done (  1.0 sec)
XC gradient                       ... done (  3.9 sec)

------------------
CARTESIAN GRADIENT
------------------

   1   C   :    0.001140213   -0.002927024   -0.000674386
   2   C   :    0.005341390    0.000217526    0.001984827
   3   H   :    0.002781829    0.000933925   -0.004147754
   4   H   :    0.002760697    0.002935048    0.002049465
   5   C   :    0.000000777   -0.003241639    0.001447252
   6   F   :    0.000402807    0.039201771   -0.011228256
   7   H   :    0.000678259   -0.001086563    0.004881181
   8   H   :    0.004033218   -0.001602086    0.000371067
   9   C   :   -0.001038743   -0.002894580   -0.000883970
  10   H   :    0.000036156   -0.004568426    0.000140621
  11   H   :    0.000242878   -0.000692916   -0.004776995
  12   C   :   -0.005560795    0.000135788    0.001430053
  13   H   :   -0.001164043   -0.001070775    0.004785407
  14   H   :   -0.004027918   -0.001670745   -0.000073786
  15   C   :    0.000156940   -0.026748798   -0.000317815
  16   H   :   -0.003003252    0.002906368    0.001761932
  17   H   :   -0.002361960    0.000894440   -0.004450698
  18   H   :   -0.000418454   -0.000721314    0.007701856

Difference to translation invariance:
           :    0.0000000000   -0.0000000000    0.0000000000

Difference to rotation invariance:
           :   -0.0001630988   -0.0001244809   -0.0000741310

Norm of the Cartesian gradient     ...    0.0525684333
RMS gradient                       ...    0.0071536577
MAX gradient                       ...    0.0392017706

-------
TIMINGS
-------

Total SCF gradient time     ....        5.084 sec

Densities                   ....       0.000 sec  (  0.0%)
One electron gradient       ....       0.164 sec  (  3.2%)
RI-J Coulomb gradient       ....       1.016 sec  ( 20.0%)
XC gradient                 ....       3.903 sec  ( 76.8%)

Maximum memory used throughout the entire SCFGRAD-calculation: 39.7 MB
------------------------------------------------------------------------------
                         ORCA GEOMETRY RELAXATION STEP
------------------------------------------------------------------------------

Reading the OPT-File                    .... done
Getting information on internals        .... done
Copying old internal coords+grads       .... done
Making the new internal coordinates     .... (2022 redundants) done
Validating the new internal coordinates .... (2022 redundants) done
Calculating the B-matrix                .... done
Calculating the G,G- and P matrices     .... done
Transforming gradient to internals      .... done
Projecting the internal gradient        .... done
Number of atoms                         ....  18
Number of internal coordinates          ....  90
Current Energy                          ....  -335.128623998 Eh
Current gradient norm                   ....     0.052568433 Eh/bohr
Maximum allowed component of the step   ....  0.300
Current trust radius                    ....  0.300
Evaluating the initial hessian          ....  (Almloef) done
Projecting the Hessian                  .... done
Forming the augmented Hessian           .... done
Diagonalizing the augmented Hessian     .... done
Last element of RFO vector              ....  0.990987311
Lowest eigenvalues of augmented Hessian:
 -0.005294783  0.015594177  0.015814271  0.018629960  0.053025947
Length of the computed step             ....  0.135174054
The final length of the internal step   ....  0.135174054
Converting the step to Cartesian space:
 Initial RMS(Int)=    0.0142485964
Transforming coordinates:
 Iter   0:  RMS(Cart)=    0.0233946078 RMS(Int)=    0.0142124630
done
Storing new coordinates                 .... done

                                .--------------------.
          ----------------------|Geometry convergence|-------------------------
          Item                value                   Tolerance       Converged
          ---------------------------------------------------------------------
          RMS gradient        0.0051789110            0.0001000000      NO
          MAX gradient        0.0405757302            0.0003000000      NO
          RMS step            0.0142485964            0.0020000000      NO
          MAX step            0.0694226618            0.0040000000      NO
          -------------------------------------------------------------------------
          ........................................................
          Max(Bonds)      0.0367      Max(Angles)    0.93
          Max(Dihed)        1.97      Max(Improp)    0.00
          ---------------------------------------------------------------------

The optimization has not yet converged - more geometry cycles are needed


    ---------------------------------------------------------------------------
                         Redundant Internal Coordinates
                            (Angstroem and degrees)

        Definition                    Value    dE/dq     Step     New-Value
    ----------------------------------------------------------------------------
     1. B(C   1,C   0)                1.5251 -0.010396  0.0140    1.5391   
     2. B(H   3,C   1)                1.0960 -0.004379  0.0065    1.1024   
     3. B(C   4,C   0)                1.5275 -0.007535  0.0106    1.5381   
     4. B(H   6,C   0)                1.0970 -0.004953  0.0074    1.1043   
     5. B(H   7,C   0)                1.0958 -0.003933  0.0058    1.1016   
     6. B(C   8,C   4)                1.5273 -0.007748  0.0108    1.5381   
     7. B(H   9,C   4)                1.0958 -0.004331  0.0064    1.1022   
     8. B(H  10,C   4)                1.0971 -0.004814  0.0072    1.1042   
     9. B(C  11,C   8)                1.5251 -0.010034  0.0140    1.5391   
    10. B(C  11,H   2)                1.0972 -0.004163  0.0062    1.1034   
    11. B(H  12,C   8)                1.0970 -0.004947  0.0073    1.1044   
    12. B(H  13,C   8)                1.0958 -0.003950  0.0058    1.1016   
    13. B(C  14,C  11)                1.5229 -0.006863  0.0092    1.5321   
    14. B(C  14,F   5)                1.3606 -0.040576  0.0367    1.3974   
    15. B(C  14,C   1)                1.5231 -0.006706  0.0091    1.5321   
    16. B(H  15,C  11)                1.0959 -0.004388  0.0065    1.1024   
    17. B(H  16,C   1)                1.0972 -0.004176  0.0062    1.1034   
    18. B(H  17,C  14)                1.0958 -0.007633  0.0113    1.1071   
    19. A(C   4,C   0,H   6)          109.37  0.000266   -0.09    109.27   
    20. A(C   1,C   0,H   7)          109.71  0.000249    0.06    109.76   
    21. A(H   6,C   0,H   7)          106.97  0.000910   -0.41    106.56   
    22. A(C   1,C   0,C   4)          111.61 -0.000200    0.07    111.68   
    23. A(C   4,C   0,H   7)          109.67 -0.000748    0.30    109.97   
    24. A(C   1,C   0,H   6)          109.40 -0.000430    0.06    109.46   
    25. A(C   0,C   1,H   3)          110.17 -0.000743    0.30    110.47   
    26. A(C   0,C   1,H  16)          109.95 -0.001158    0.09    110.04   
    27. A(H   3,C   1,C  14)          109.61  0.001159   -0.11    109.50   
    28. A(C   0,C   1,C  14)          111.54 -0.001118    0.10    111.64   
    29. A(H   3,C   1,H  16)          106.01 -0.002233    0.40    106.41   
    30. A(C  14,C   1,H  16)          109.41  0.004094   -0.78    108.63   
    31. A(H   9,C   4,H  10)          106.94  0.000590   -0.23    106.71   
    32. A(C   8,C   4,H  10)          109.33 -0.000048   -0.06    109.27   
    33. A(C   0,C   4,H  10)          109.33  0.000076   -0.05    109.28   
    34. A(C   8,C   4,H   9)          109.65 -0.000450    0.25    109.90   
    35. A(C   0,C   4,H   9)          109.65 -0.000867    0.27    109.92   
    36. A(C   0,C   4,C   8)          111.82  0.000698   -0.18    111.63   
    37. A(C   4,C   8,C  11)          111.56 -0.000121    0.13    111.69   
    38. A(H  12,C   8,H  13)          106.97  0.001121   -0.43    106.54   
    39. A(C  11,C   8,H  13)          109.72 -0.000374    0.08    109.80   
    40. A(C   4,C   8,H  13)          109.69 -0.000471    0.28    109.97   
    41. A(C  11,C   8,H  12)          109.41 -0.000190    0.03    109.43   
    42. A(C   4,C   8,H  12)          109.38  0.000088   -0.11    109.27   
    43. A(H   2,C  11,C   8)          109.95 -0.000434    0.09    110.04   
    44. A(C   8,C  11,H  15)          110.19 -0.000496    0.27    110.46   
    45. A(H   2,C  11,H  15)          106.02 -0.001069    0.32    106.34   
    46. A(C   8,C  11,C  14)          111.49 -0.001498    0.15    111.63   
    47. A(C  14,C  11,H  15)          109.63  0.001532   -0.12    109.51   
    48. A(H   2,C  11,C  14)          109.42  0.002024   -0.71    108.72   
    49. A(F   5,C  14,C  11)          108.66 -0.001682    0.93    109.59   
    50. A(C   1,C  14,C  11)          111.79  0.000711   -0.06    111.73   
    51. A(C   1,C  14,F   5)          108.66 -0.001996    0.92    109.58   
    52. A(C  11,C  14,H  17)          110.11  0.001867   -0.76    109.35   
    53. A(F   5,C  14,H  17)          107.38 -0.000941   -0.23    107.15   
    54. A(C   1,C  14,H  17)          110.11  0.001861   -0.76    109.35   
    55. D(C  14,C   1,C   0,H   7)   -175.83  0.000964   -0.56   -176.39   
    56. D(H   3,C   1,C   0,C   4)   -176.02 -0.000143   -0.24   -176.26   
    57. D(C  14,C   1,C   0,C   4)    -54.06  0.000056   -0.10    -54.16   
    58. D(C  14,C   1,C   0,H   6)     67.12 -0.000031   -0.14     66.98   
    59. D(H   3,C   1,C   0,H   7)     62.21  0.000765   -0.70     61.51   
    60. D(H   3,C   1,C   0,H   6)    -54.84 -0.000230   -0.27    -55.11   
    61. D(C   8,C   4,C   0,C   1)     53.83  0.000199   -0.04     53.78   
    62. D(H   9,C   4,C   0,H   7)    -62.54 -0.000838    0.66    -61.88   
    63. D(H   9,C   4,C   0,H   6)     54.47 -0.000015    0.28     54.75   
    64. D(H   9,C   4,C   0,C   1)    175.67 -0.000506    0.34    176.01   
    65. D(C   8,C   4,C   0,H   6)    -67.37  0.000690   -0.10    -67.47   
    66. D(C   8,C   4,C   0,H   7)    175.62 -0.000134    0.28    175.90   
    67. D(C  11,C   8,C   4,H   9)   -175.78  0.000416   -0.23   -176.02   
    68. D(C  11,C   8,C   4,C   0)    -53.94 -0.000528    0.15    -53.79   
    69. D(C  11,C   8,C   4,H  10)     67.28 -0.000010   -0.07     67.21   
    70. D(H  12,C   8,C   4,H  10)   -171.54 -0.000268   -0.03   -171.57   
    71. D(H  12,C   8,C   4,H   9)    -54.60  0.000159   -0.19    -54.79   
    72. D(H  12,C   8,C   4,C   0)     67.24 -0.000786    0.19     67.44   
    73. D(C  14,C  11,C   8,H  13)    176.05 -0.000493    0.37    176.43   
    74. D(C  14,C  11,C   8,H  12)    -66.88  0.000536   -0.09    -66.96   
    75. D(C  14,C  11,C   8,C   4)     54.29  0.000440   -0.13     54.16   
    76. D(H   2,C  11,C   8,H  13)     54.51 -0.001757    1.11     55.62   
    77. D(H   2,C  11,C   8,H  12)    171.58 -0.000728    0.65    172.23   
    78. D(H   2,C  11,C   8,C   4)    -67.25 -0.000824    0.61    -66.64   
    79. D(C  11,C  14,C   1,H  16)    -67.17  0.000984    0.22    -66.95   
    80. D(C  11,C  14,C   1,H   3)    176.98  0.000695    0.25    177.23   
    81. D(C  11,C  14,C   1,C   0)     54.69  0.001584   -0.12     54.57   
    82. D(F   5,C  14,C   1,H  16)     52.75 -0.001974    1.95     54.69   
    83. D(F   5,C  14,C   1,H   3)    -63.10 -0.002263    1.97    -61.13   
    84. D(C   1,C  14,C  11,H   2)     67.04 -0.001814   -0.03     67.01   
    85. D(F   5,C  14,C   1,C   0)    174.61 -0.001373    1.60    176.21   
    86. D(F   5,C  14,C  11,H  15)     63.00  0.002056   -1.84     61.16   
    87. D(F   5,C  14,C  11,C   8)   -174.72  0.001482   -1.48   -176.20   
    88. D(F   5,C  14,C  11,H   2)    -52.88  0.001328   -1.75    -54.63   
    89. D(C   1,C  14,C  11,H  15)   -177.09 -0.001086   -0.12   -177.21   
    90. D(C   1,C  14,C  11,C   8)    -54.81 -0.001660    0.24    -54.57   
    ----------------------------------------------------------------------------

Geometry step timings:
Preparation and reading OPT file:      0.000 s ( 1.024 %)
Internal coordinates            :      0.000 s ( 1.472 %)
B/P matrices and projection     :      0.000 s (27.913 %)
Hessian update/contruction      :      0.000 s (17.093 %)
Making the step                 :      0.000 s (23.303 %)
Converting the step to Cartesian:      0.000 s ( 1.985 %)
Storing new data                :      0.000 s ( 2.561 %)
Checking convergence            :      0.000 s ( 2.177 %)
Final printing                  :      0.000 s (22.471 %)
Total time                      :      0.002 s

Time for energy+gradient        :     16.585 s
Time for complete geometry iter :     16.624 s

         *************************************************************
         *                GEOMETRY OPTIMIZATION CYCLE   2            *
         *************************************************************
---------------------------------
CARTESIAN COORDINATES (ANGSTROEM)
---------------------------------
  C     -4.264703    2.536734   -0.273660
  C     -4.274357    1.058119    0.153421
  H     -1.737094    0.997818    1.391661
  H     -5.135239    0.533524   -0.292752
  C     -3.023868    3.273761    0.258169
  F     -2.996379   -0.965400    0.235626
  H     -4.282566    2.601474   -1.375965
  H     -5.179997    3.033971    0.084868
  C     -1.723689    2.552499   -0.135749
  H     -3.009452    4.307949   -0.122808
  H     -3.083911    3.341603    1.358655
  C     -1.741877    1.073801    0.290886
  H     -1.587825    2.617653   -1.229784
  H     -0.858708    3.061382    0.318564
  C     -2.978190    0.345938   -0.246781
  H     -0.831236    0.560512   -0.059286
  H     -4.395309    0.981316    1.247494
  H     -2.917873    0.286862   -1.350698

----------------------------
CARTESIAN COORDINATES (A.U.)
----------------------------
  NO LB      ZA    FRAG     MASS         X           Y           Z
   0 C     6.0000    0    12.011   -8.059121    4.793733   -0.517143
   1 C     6.0000    0    12.011   -8.077363    1.999556    0.289924
   2 H     1.0000    0     1.008   -3.282632    1.885602    2.629859
   3 H     1.0000    0     1.008   -9.704196    1.008215   -0.553220
   4 C     6.0000    0    12.011   -5.714283    6.186513    0.487869
   5 F     9.0000    0    18.998   -5.662335   -1.824341    0.445270
   6 H     1.0000    0     1.008   -8.092877    4.916073   -2.600197
   7 H     1.0000    0     1.008   -9.788776    5.733375    0.160376
   8 C     6.0000    0    12.011   -3.257299    4.823524   -0.256528
   9 H     1.0000    0     1.008   -5.687040    8.140844   -0.232074
  10 H     1.0000    0     1.008   -5.827748    6.314715    2.567486
  11 C     6.0000    0    12.011   -3.291670    2.029189    0.549695
  12 H     1.0000    0     1.008   -3.000554    4.946647   -2.323955
  13 H     1.0000    0     1.008   -1.622723    5.785175    0.601999
  14 C     6.0000    0    12.011   -5.627964    0.653728   -0.466349
  15 H     1.0000    0     1.008   -1.570808    1.059213   -0.112033
  16 H     1.0000    0     1.008   -8.305930    1.854419    2.357422
  17 H     1.0000    0     1.008   -5.513980    0.542091   -2.552448

--------------------------------
INTERNAL COORDINATES (ANGSTROEM)
--------------------------------
 C      0   0   0     0.000000000000     0.00000000     0.00000000
 C      1   0   0     1.539088532950     0.00000000     0.00000000
 H      2   1   0     2.823929145115    97.84844670     0.00000000
 H      2   1   3     1.102446699578   110.47165187   188.98980924
 C      1   2   3     1.538090303580   111.68275698   354.74943879
 F      2   1   3     2.394705376540   144.88247781   314.70726203
[...]
      px      :     0.985141
      py      :     0.938487
      dz2     :     0.020086  d :     0.090632
      dxz     :     0.009547
      dyz     :     0.013609
      dx2y2   :     0.020392
      dxy     :     0.026999
      f0      :     0.000890  f :     0.005173
      f+1     :     0.000365
      f-1     :     0.000578
      f+2     :     0.000553
      f-2     :     0.000469
      f+3     :     0.001404
      f-3     :     0.000914

  9 H s       :     0.895712  s :     0.895712
      pz      :     0.005155  p :     0.021135
      px      :     0.004661
      py      :     0.011319

 10 H s       :     0.914979  s :     0.914979
      pz      :     0.011754  p :     0.020977
      px      :     0.004528
      py      :     0.004695

 11 C s       :     3.109743  s :     3.109743
      pz      :     1.000721  p :     2.926799
      px      :     0.978979
      py      :     0.947098
      dz2     :     0.020825  d :     0.083416
      dxz     :     0.007011
      dyz     :     0.014228
      dx2y2   :     0.016778
      dxy     :     0.024574
      f0      :     0.000868  f :     0.005052
      f+1     :     0.000445
      f-1     :     0.000632
      f+2     :     0.000510
      f-2     :     0.000423
      f+3     :     0.001234
      f-3     :     0.000939

 12 H s       :     0.910944  s :     0.910944
      pz      :     0.011565  p :     0.020987
      px      :     0.004817
      py      :     0.004606

 13 H s       :     0.893439  s :     0.893439
      pz      :     0.005499  p :     0.021214
      px      :     0.009488
      py      :     0.006227

 14 C s       :     3.167801  s :     3.167801
      pz      :     0.916370  p :     2.525890
      px      :     0.966481
      py      :     0.643038
      dz2     :     0.036355  d :     0.171884
      dxz     :     0.021917
      dyz     :     0.027502
      dx2y2   :     0.043618
      dxy     :     0.042492
      f0      :     0.001275  f :     0.013485
      f+1     :     0.000955
      f-1     :     0.002120
      f+2     :     0.001933
      f-2     :     0.001411
      f+3     :     0.003944
      f-3     :     0.001848

 15 H s       :     0.891636  s :     0.891636
      pz      :     0.005010  p :     0.021299
      px      :     0.009851
      py      :     0.006437

 16 H s       :     0.913872  s :     0.913872
      pz      :     0.011910  p :     0.021140
      px      :     0.004629
      py      :     0.004601

 17 H s       :     0.945874  s :     0.945874
      pz      :     0.012901  p :     0.020254
      px      :     0.004530
      py      :     0.002823



                     *******************************
                     * LOEWDIN POPULATION ANALYSIS *
                     *******************************

----------------------
LOEWDIN ATOMIC CHARGES
----------------------
   0 C :   -0.255516
   1 C :   -0.240841
   2 H :    0.139333
   3 H :    0.136969
   4 C :   -0.261432
   5 F :    0.075716
   6 H :    0.134623
   7 H :    0.134508
   8 C :   -0.255497
   9 H :    0.133694
  10 H :    0.134662
  11 C :   -0.240851
  12 H :    0.134661
  13 H :    0.134496
  14 C :   -0.314458
  15 H :    0.136967
  16 H :    0.139355
  17 H :    0.133611

-------------------------------
LOEWDIN REDUCED ORBITAL CHARGES
-------------------------------
  0 C s       :     2.786939  s :     2.786939
      pz      :     1.026598  p :     3.043638
      px      :     1.011724
      py      :     1.005316
      dz2     :     0.102988  d :     0.388107
      dxz     :     0.036745
      dyz     :     0.056731
      dx2y2   :     0.088476
      dxy     :     0.103167
      f0      :     0.004927  f :     0.036832
      f+1     :     0.002698
      f-1     :     0.003964
      f+2     :     0.006354
      f-2     :     0.005464
      f+3     :     0.007508
      f-3     :     0.005918

  1 C s       :     2.789670  s :     2.789670
      pz      :     1.027110  p :     3.040448
      px      :     1.005324
      py      :     1.008014
      dz2     :     0.092140  d :     0.374337
      dxz     :     0.044493
      dyz     :     0.056653
      dx2y2   :     0.079227
      dxy     :     0.101823
      f0      :     0.005217  f :     0.036385
      f+1     :     0.002448
      f-1     :     0.003746
      f+2     :     0.005372
      f-2     :     0.006125
      f+3     :     0.007410
      f-3     :     0.006067

  2 H s       :     0.802152  s :     0.802152
      pz      :     0.033478  p :     0.058515
      px      :     0.012520
      py      :     0.012517

  3 H s       :     0.804255  s :     0.804255
      pz      :     0.016239  p :     0.058776
      px      :     0.025091
      py      :     0.017445

  4 C s       :     2.787546  s :     2.787546
      pz      :     1.025790  p :     3.047161
      px      :     1.015001
      py      :     1.006369
      dz2     :     0.100196  d :     0.389666
      dxz     :     0.065235
      dyz     :     0.031234
      dx2y2   :     0.116439
      dxy     :     0.076562
      f0      :     0.005043  f :     0.037058
      f+1     :     0.004828
      f-1     :     0.001676
      f+2     :     0.005552
      f-2     :     0.006293
      f+3     :     0.007769
      f-3     :     0.005897

  5 F s       :     3.646968  s :     3.646968
      pz      :     1.833214  p :     5.250712
      px      :     1.859196
      py      :     1.558303
      dz2     :     0.003607  d :     0.025508
      dxz     :     0.000627
      dyz     :     0.007437
      dx2y2   :     0.008052
      dxy     :     0.005785
      f0      :     0.000095  f :     0.001095
      f+1     :     0.000006
      f-1     :     0.000231
      f+2     :     0.000234
      f-2     :     0.000060
      f+3     :     0.000237
      f-3     :     0.000233

  6 H s       :     0.807233  s :     0.807233
      pz      :     0.032826  p :     0.058144
      px      :     0.012722
      py      :     0.012596

  7 H s       :     0.806971  s :     0.806971
      pz      :     0.015166  p :     0.058521
      px      :     0.026824
      py      :     0.016531

  8 C s       :     2.786947  s :     2.786947
      pz      :     1.027275  p :     3.043612
      px      :     1.011124
      py      :     1.005213
      dz2     :     0.093358  d :     0.388109
      dxz     :     0.046535
      dyz     :     0.055929
      dx2y2   :     0.087707
      dxy     :     0.104580
      f0      :     0.005222  f :     0.036829
      f+1     :     0.002249
      f-1     :     0.003738
      f+2     :     0.005941
      f-2     :     0.005743
      f+3     :     0.008111
      f-3     :     0.005827

  9 H s       :     0.807917  s :     0.807917
      pz      :     0.015402  p :     0.058390
      px      :     0.012690
      py      :     0.030297

 10 H s       :     0.807233  s :     0.807233
      pz      :     0.032778  p :     0.058105
      px      :     0.012726
      py      :     0.012601

 11 C s       :     2.789651  s :     2.789651
      pz      :     1.025972  p :     3.040465
      px      :     1.006478
      py      :     1.008015
      dz2     :     0.099672  d :     0.374342
      dxz     :     0.036256
      dyz     :     0.057682
      dx2y2   :     0.080085
      dxy     :     0.100647
      f0      :     0.004881  f :     0.036393
      f+1     :     0.002838
      f-1     :     0.003989
      f+2     :     0.005714
      f-2     :     0.005928
      f+3     :     0.006933
      f-3     :     0.006110

 12 H s       :     0.807199  s :     0.807199
      pz      :     0.032665  p :     0.058140
      px      :     0.012879
      py      :     0.012596

 13 H s       :     0.806984  s :     0.806984
      pz      :     0.016504  p :     0.058520
      px      :     0.025294
      py      :     0.016722

 14 C s       :     2.779622  s :     2.779622
      pz      :     0.988452  p :     2.784804
      px      :     1.043472
      py      :     0.752879
      dz2     :     0.154285  d :     0.657660
      dxz     :     0.072166
      dyz     :     0.104695
      dx2y2   :     0.169315
      dxy     :     0.157200
      f0      :     0.008580  f :     0.092372
      f+1     :     0.005404
      f-1     :     0.011752
      f+2     :     0.018158
      f-2     :     0.011456
      f+3     :     0.020903
      f-3     :     0.016120

 15 H s       :     0.804256  s :     0.804256
      pz      :     0.014909  p :     0.058777
      px      :     0.026629
      py      :     0.017240

 16 H s       :     0.802139  s :     0.802139
      pz      :     0.033424  p :     0.058507
      px      :     0.012568
      py      :     0.012515

 17 H s       :     0.810852  s :     0.810852
      pz      :     0.035166  p :     0.055537
      px      :     0.012772
      py      :     0.007599



                      *****************************
                      * MAYER POPULATION ANALYSIS *
                      *****************************

  NA   - Mulliken gross atomic population
  ZA   - Total nuclear charge
  QA   - Mulliken gross atomic charge
  VA   - Mayer's total valence
  BVA  - Mayer's bonded valence
  FA   - Mayer's free valence

  ATOM       NA         ZA         QA         VA         BVA        FA
  0 C      6.1573     6.0000    -0.1573     4.0533     4.0533    -0.0000
  1 C      6.1250     6.0000    -0.1250     3.9456     3.9456     0.0000
  2 H      0.9352     1.0000     0.0648     0.9963     0.9963     0.0000
  3 H      0.9129     1.0000     0.0871     0.9771     0.9771     0.0000
  4 C      6.1287     6.0000    -0.1287     4.0395     4.0395    -0.0000
  5 F      9.2193     9.0000    -0.2193     1.0671     1.0671     0.0000
  6 H      0.9321     1.0000     0.0679     0.9803     0.9803     0.0000
  7 H      0.9146     1.0000     0.0854     0.9698     0.9698     0.0000
  8 C      6.1572     6.0000    -0.1572     4.0531     4.0531    -0.0000
  9 H      0.9168     1.0000     0.0832     0.9695     0.9695    -0.0000
 10 H      0.9360     1.0000     0.0640     0.9803     0.9803     0.0000
 11 C      6.1250     6.0000    -0.1250     3.9459     3.9459    -0.0000
 12 H      0.9319     1.0000     0.0681     0.9803     0.9803    -0.0000
 13 H      0.9147     1.0000     0.0853     0.9699     0.9699     0.0000
 14 C      5.8791     6.0000     0.1209     4.2118     4.2118    -0.0000
 15 H      0.9129     1.0000     0.0871     0.9771     0.9771    -0.0000
 16 H      0.9350     1.0000     0.0650     0.9963     0.9963     0.0000
 17 H      0.9661     1.0000     0.0339     0.9663     0.9663     0.0000

  Mayer bond orders larger than 0.100000
B(  0-C ,  1-C ) :   1.0146 B(  0-C ,  4-C ) :   1.0463 B(  0-C ,  6-H ) :   0.9468 
B(  0-C ,  7-H ) :   0.9374 B(  1-C ,  3-H ) :   0.9389 B(  1-C , 14-C ) :   1.0278 
B(  1-C , 16-H ) :   0.9354 B(  2-H , 11-C ) :   0.9354 B(  4-C ,  8-C ) :   1.0462 
B(  4-C ,  9-H ) :   0.9403 B(  4-C , 10-H ) :   0.9429 B(  5-F , 14-C ) :   1.0744 
B(  8-C , 11-C ) :   1.0146 B(  8-C , 12-H ) :   0.9468 B(  8-C , 13-H ) :   0.9374 
B( 11-C , 14-C ) :   1.0279 B( 11-C , 15-H ) :   0.9388 B( 14-C , 17-H ) :   0.9535 


-------
TIMINGS
-------

Total SCF time: 0 days 0 hours 0 min 3 sec 

Total time                  ....       3.751 sec
Sum of individual times     ....       3.154 sec  ( 84.1%)

SCF preparation             ....       0.029 sec  (  0.8%)
Fock matrix formation       ....       3.080 sec  ( 82.1%)
  Startup                   ....       0.001 sec  (  0.0% of F)
  Split-RI-J                ....       1.007 sec  ( 32.7% of F)
  XC integration            ....       2.639 sec  ( 85.7% of F)
    Basis function eval.    ....       0.880 sec  ( 33.3% of XC)
    Density eval.           ....       0.553 sec  ( 21.0% of XC)
    XC-Functional eval.     ....       0.059 sec  (  2.2% of XC)
    XC-Potential eval.      ....       1.098 sec  ( 41.6% of XC)
Diagonalization             ....       0.000 sec  (  0.0%)
Density matrix formation    ....       0.002 sec  (  0.1%)
Total Energy calculation    ....       0.002 sec  (  0.0%)
Population analysis         ....       0.015 sec  (  0.4%)
Orbital Transformation      ....       0.005 sec  (  0.1%)
Orbital Orthonormalization  ....       0.000 sec  (  0.0%)
DIIS solution               ....       0.008 sec  (  0.2%)
SOSCF solution              ....       0.013 sec  (  0.3%)
Finished LeanSCF after   3.8 sec

Maximum memory used throughout the entire LEANSCF-calculation: 30.9 MB

-------------------------   --------------------
FINAL SINGLE POINT ENERGY      -335.132224441443
-------------------------   --------------------

                                *** OPTIMIZATION RUN DONE ***


------------------------------------------------------------------------------
                              ORCA PROPERTY CALCULATIONS
------------------------------------------------------------------------------

GBWName                                 ... job.gbw
Number of atoms                         ...     18
Number of basis functions               ...    283
Max core memory                         ...  16384 MB

Electric properties:
Dipole moment                           ... YES
Quadrupole moment                       ...  NO
Static polarizability (Dipole/Dipole)   ...  NO
Static polarizability (Dipole/Quad.)    ...  NO
Static polarizability (Quad./Quad.)     ...  NO
Static polarizability (Velocity)        ...  NO
Static hyperpolarizability              ...  NO

Atomic electric properties:
Dipole moment                           ...  NO
Quadrupole moment                       ...  NO
Static polarizability                   ...  NO

Choice of electric origin               ... Center of mass
Position of electric origin             ...    -5.669127     2.484810     0.086725

General magnetic properties:
Magnetizability                         ...  NO

EPR properties:
g-Tensor (aka g-matrix)                 ...  NO
Zero-Field splitting spin-orbit         ...  NO
Zero-field splitting spin-spin          ...  NO
Hyperfine couplings                     ...  NO (   0 nuclei)
Quadrupole couplings                    ...  NO (   0 nuclei)
Contact density                         ...  NO (   0 nuclei)

NMR properties:
Chemical shifts                         ...  NO (   0 nuclei)
Spin-rotation constants                 ...  NO (   0 nuclei)
Spin-spin couplings                     ...  NO (   0 nuclei,    0 pairs)

Choice of magnetic origin               ... GIAO
Position of magnetic origin             ...     0.000000     0.000000     0.000000

Properties with geometric perturbations:
SCF Hessian                             ...  NO
IR spectrum                             ...  NO
VCD spectrum                            ...  NO
X-ray spectroscopy properties:
SCF XES/XAS/RIXS spectra                ...  NO

SCF SOC stabilization energy            ...  NO
Diagonal Born-Oppenheimer correction    ...  NO

-------------
DIPOLE MOMENT
-------------

Method             : SCF
Type of density    : Electron Density
Multiplicity       :   1
Irrep              :   0
Energy             :  -335.1322244414432703 Eh
Basis              : AO
                                X                 Y                 Z
Electronic contribution:      0.029350786      -8.685941739       0.471070847
Nuclear contribution   :     -0.025019950       9.496408949      -0.644111733
                        -----------------------------------------
Total Dipole Moment    :      0.004330836       0.810467210      -0.173040886
                        -----------------------------------------
Magnitude (a.u.)       :      0.828745439
Magnitude (Debye)      :      2.106503500



--------------------
Rotational spectrum 
--------------------
 
Rotational constants in cm-1:             0.141956             0.071548             0.052018 
Rotational constants in MHz :          4255.732677          2144.968812          1559.468313 

Dipole components along the rotational axes: 
x,y,z [a.u.] :     0.816130     0.000130    -0.144052 
x,y,z [Debye]:     2.074437     0.000331    -0.366152 

 

Dipole moment calculation done in   0.0 sec 

Maximum memory used throughout the entire PROP-calculation: 21.8 MB

--------------------------------
SUGGESTED CITATIONS FOR THIS RUN
--------------------------------

Below you find a list of papers that are relevant to this ORCA run
We neither can nor want to force you to cite these papers, but we appreciate if you do
You receive ORCA, which is the product of decades of hard work by many enthusiastic individuals, for free
The only thing we kindly ask in return is that you cite our papers,
We deeply appreciate it, if you show your appreciation for ORCA by not just citing the generic ORCA reference.

Please note that relegating all ORCA citations to the supporting information does *not* help us.
SI sections are not indexed - citations you put there will not count into any citation statistics
But we need these citations in order to attract the funding resources that allow us to do what we are doing

Therefore, if you are a happy ORCA user, please consider citing a few of the papers listed below in the main body of your paper

In addition to the list printed below, the program has created the file job.bibtex that contains the list in bibtex format
You can import this file easily into all common literature databanks and citation aid programs


List of essential papers. We consider these as the minimum necessary citations

  1. Neese, F.
     Software update: the ORCA program system, version 6.0
     WIRES Comput. Molec. Sci. 2025 15(1), e70019
     doi.org/10.1002/wcms.7019

List of papers to cite with high priority. The work reported in these papers was absolutely
necessary for this run to complete.
Our perspective: the developers of density functionals and basis sets usually get cited in chemistry papers
Good! But without the algorithms to do something with them, the functionals or basis sets would not do anything.
Hence, in our opinion, the algorithm design and method developments papers are equally worthy of getting cited

  1. Neese, F.
     An improvement of the resolution of the identity approximation for the formation of the Coulomb matrix
     J. Comp. Chem. 2003 24(14), 1740-1747
     doi.org/10.1002/jcc.10318
  2. Neese, F.
     The SHARK Integral Generation and Digestion System
     J. Comp. Chem. 2022 44(3), 381
     doi.org/10.1002/jcc.26942

List of suggested additional citations. These are papers that are important in the 'surrounding' of 
of this run, or papers that preceded the highly important papers. If you like your results we are grateful for a citation.

  1. Neese, F.
     The ORCA program system
     WIRES Comput. Molec. Sci. 2012 2(1), 73-78
     doi.org/10.1002/wcms.81
  2. Neese, F.
     Software update: the ORCA program system, version 4.0
     WIRES Comput. Molec. Sci. 2018 8(1), 1-6
     doi.org/10.1002/wcms.1327
  3. Neese, F.; Wennmohs, F.; Becker, U.; Riplinger, C.
     The ORCA quantum chemistry program package
     J. Chem. Phys. 2020 152(22), 224108
     doi.org/10.1063/5.0004608
  4. Neese, F.
     Software update: The ORCA program system—Version 5.0
     WIRES Comput. Molec. Sci. 2022 12(1), e1606
     doi.org/10.1002/wcms.1606

List of optional additional citations

  1. Neese, F.
     Approximate second-order SCF convergence for spin unrestricted wavefunctions
     Chem. Phys. Lett. 2000 325(1-3), 93-98
     doi.org/10.1016/s0009-2614(00)00662-x

Timings for individual modules:

Sum of individual times          ...       80.218 sec (=   1.337 min)
Startup calculation              ...        3.027 sec (=   0.050 min)   3.8 %
SCF iterations                   ...       46.617 sec (=   0.777 min)  58.1 %
Property calculations            ...        0.062 sec (=   0.001 min)   0.1 %
SCF Gradient evaluation          ...       30.497 sec (=   0.508 min)  38.0 %
Geometry relaxation              ...        0.015 sec (=   0.000 min)   0.0 %
                             ****ORCA TERMINATED NORMALLY****
TOTAL RUN TIME: 0 days 0 hours 1 minutes 20 seconds 553 msec
