
                                 *****************
                                 * O   R   C   A *
                                 *****************

                                            #,                                       
                                            ###                                      
                                            ####                                     
                                            #####                                    
                                            ######                                   
                                           ########,                                 
                                     ,,################,,,,,                         
                               ,,#################################,,                 
                          ,,##########################################,,             
                       ,#########################################, ''#####,          
                    ,#############################################,,   '####,        
                  ,##################################################,,,,####,       
                ,###########''''           ''''###############################       
              ,#####''   ,,,,##########,,,,          '''####'''          '####       
            ,##' ,,,,###########################,,,                        '##       
           ' ,,###''''                  '''############,,,                           
         ,,##''                                '''############,,,,        ,,,,,,###''
      ,#''                                            '''#######################'''  
     '                                                          ''''####''''         
             ,#######,   #######,   ,#######,      ##                                
            ,#'     '#,  ##    ##  ,#'     '#,    #''#        ,####,    ,#,          
            ##       ##  ##   ,#'  ##            #'  '#       #'       ,# #          
            ##       ##  #######   ##           ,######,      #####,      #          
            '#,     ,#'  ##    ##  '#,     ,#' ,#      #,     #,   #      #          
             '#######'   ##     ##  '#######'  #'      '#     '####' #    #          



                #########################################################
                #                        -***-                          #
                #          Department of theory and spectroscopy        #
                #                                                       #
                #                      Frank Neese                      #
                #                                                       #
                #     Directorship, Architecture, Infrastructure        #
                #                    SHARK, DRIVERS                     #
                #        Core code/Algorithms in most modules           #
                #                                                       #
                #        Max Planck Institute fuer Kohlenforschung      #
                #                Kaiser Wilhelm Platz 1                 #
                #                 D-45470 Muelheim/Ruhr                 #
                #                      Germany                          #
                #                                                       #
                #                  All rights reserved                  #
                #                        -***-                          #
                #########################################################


                         Program Version 6.1.0  -  RELEASE   -
                                (GIT: $679e74b7b5$)
                          ($2025-06-10 18:02:51 +0200$)


 With contributions from (in alphabetic order):
[Max-Planck-Institut fuer Kohlenforschung]                               
  Daniel Aravena         : Magnetic Suceptibility                        
  Michael Atanasov       : Ab Initio Ligand Field Theory (pilot matlab implementation)
  Alexander A. Auer      : GIAO ZORA, VPT2 properties, NMR spectrum      
  Ute Becker             : All parallelization in ORCA, NUMFREQ, NUMCALC 
  Giovanni Bistoni       : ED, misc. LED, open-shell LED, HFLD           
  Dmytro Bykov           : pre 5.0 version of the SCF Hessian            
  Marcos Casanova-Páez   : Triplet and SCS-CIS(D). UHF-(DLPNO)-IP/EA/STEOM-CCSD. UHF-CVS-IP/STEOM-CCSD   
  Vijay G. Chilkuri      : MRCI spin determinant printing, contributions to CSF-ICE 
  Pauline Colinet        : FMM embedding                                 
  Dipayan Datta          : RHF DLPNO-CCSD density                        
  Achintya Kumar Dutta   : EOM-CC, STEOM-CC                              
  Nicolas Foglia         : Exact transition moments, OPA infrastructure, MCD improvements    
  Dmitry Ganyushin       : Spin-Orbit,Spin-Spin,Magnetic field MRCI      
  Miquel Garcia-Rates    : C-PCM and meta-GGA Hessian, CCSD/C-PCM, Gaussian charge scheme 
  Tiago L. C. Gouveia    : GS-ROHF, GS-ROCIS                             
  Yang Guo               : DLPNO-NEVPT2, F12-NEVPT2, CIM, IAO-localization        
  Andreas Hansen         : Spin unrestricted coupled pair/coupled cluster methods 
  Ingolf Harden          : AUTO-CI MPn and infrastructure                
  Benjamin Helmich-Paris : MC-RPA, TRAH-(SCF,CASSCF), AVAS, COSX integrals, SCF dyn. polar., MC-PDFT, srDFT 
  Lee Huntington         : MR-EOM, pCC                                   
  Robert Izsak           : Overlap fitted RIJCOSX, COSX-SCS-MP3, EOM     
  Riya Kayal             : Wick's Theorem for AUTO-CI, AUTO-CI UHF-CCSDT 
  Emily Kempfer          : AUTO-CI RHF CISDT and CCSDT, approximate NEVPT4
  Christian Kollmar      : KDIIS, OOCD, Brueckner-CCSD(T), CCSD density, CASPT2, CASPT2-K, improved NEVPT2 
  Axel Koslowski         : Symmetry handling                             
  Simone Kossmann        : meta-GGA functionals, TD-DFT gradient, OOMP2, (MP2 Hessian; deprecated post 5.0) 
  Lucas Lang             : DCDCAS, Hyperfine gauge corrections, ICE-SOC+SSC
  Marvin Lechner         : AUTO-CI (C++ implementation), FIC-MRCC        
  Spencer Leger          : CASSCF response                               
  Dagmar Lenk            : GEPOL surface, SMD, ORCA-2-JSON               
  Dimitrios Liakos       : Extrapolation schemes; Compound Job, Property file
  Dimitrios Manganas     : Further ROCIS development; embedding schemes. LFT, Crystal Embedding 
  Dimitrios Pantazis     : SARC Basis sets                               
  Anastasios Papadopoulos: AUTO-CI, single reference methods and gradients 
  Taras Petrenko         : pre 6.0 DFT Hessian and TD-DFT gradient,  ECA, NRVS 
  Petra Pikulova         : Analytic Raman intensities                    
  Peter Pinski           : DLPNO-MP2, DLPNO-MP2 Gradient                 
  Shashank Vittal Rao    : ES-AILFT, MagRelax                            
  Christoph Reimann      : Effective Core Potentials                     
  Marius Retegan         : Local ZFS, SOC                                
  Christoph Riplinger    : Optimizer, TS searches, QM/MM, DLPNO-CCSD(T), (RO)-DLPNO pert. Triples 
  Michael Roemelt        : Original ROCIS implementation, recursive CI coupling coefficients
  Masaaki Saitow         : Open-shell DLPNO-CCSD energy and density      
  Barbara Sandhoefer     : DKH picture change effects                    
  Yorick L. A. Schmerwitz: GMF and freeze-and-release deltaSCF, NEB S-IDPP initial path                    
  Kantharuban Sivalingam : CASSCF convergence/infrastructure, NEVPT2, NEVPT3, NEVPT4(SD), FIC-MRCI and CEPA variants
  Bernardo de Souza      : ESD, SOC TD-DFT                               
  Georgi L. Stoychev     : AutoAux, RI-MP2 NMR, DLPNO-MP2 response, X2C  
  Van Anh Tran           : RI-MP2 g-tensors                              
  Willem Van den Heuvel  : Paramagnetic NMR                              
  Zikuan Wang            : NOTCH, Electric field optimization            
  Frank Wennmohs         : Technical directorship and infrastructure     
  Hang Xu                : AUTO-CI-Response properties                   
                                                                         
[FACCTs GmbH]                                                            
  Markus Bursch, Nicolas Foglia, Miquel Garcia-Rates, Ingolf Harden, Hagen Neugebauer, Anastasios Papadopoulos, 
  Christoph Riplinger, Bernardo de Souza, Georgi L. Stoychev                                                    
                                                                 
  APM, various basis sets, CI-OPT, improved COSX, DLPNO-Multilevel,           
  DOCKER, DRACO, updates on ESD, Fragmentator, GOAT, IRC, LR-CPCM, L-BFGS, MBIS, meta-GGA TD-DFT gradient, ML-optimized integration grids, 
  MM, NACMEs, nearIR, NEB, NEB-TS, NL-DFT gradient (VV10), 2- and 3-layer-ONIOM, interface openCOSMO-RS, QMMM,   
  Crystal-QMMM, RESP, rigid body optimization, SF, symmetry and pop. for TD-DFT, various functionals, SOLVATOR                                   
                                                                         
[Other institutions]                                                     
  V. Asgeirsson          : NEB                                           
  Christoph Bannwarth    : sTDA-DFT, sTD-DFT, PBEh-3c, B97-3c, D3        
  Giovanni Bistoni       : ETS/NOCV, ADLD/ADEX, COVALED                  
  Martin Brehm           : Molecular dynamics                            
  Ronald Cardenas        : ETS/NOCV                                      
  Martina Colucci        : COVALED                                       
  Sebastian Ehlert       : rSCAN, r2SCAN, r2SCAN-3c, D4, dhf basis sets  
  Marvin Friede          : D4 for Fr, Ra, Ac-Lr                          
  Lars Goerigk           : TD-DFT with DH, B97 family of functionals     
  Stefan Grimme          : VdW corrections, initial TS optimization, DFT functionals, gCP, sTDA/sTD-DF 
  Waldemar Hujo          : DFT-NL                                        
  H. Jonsson             : NEB                                           
  Holger Kruse           : gCP                                           
  Marcel Mueller         : wB97X-3c, vDZP basis set                      
  Hagen Neugebauer       : wr2SCAN, Native XTB                           
  Gianluca Regni         : ADLD/ADEX                                     
  Tobias Risthaus        : pre 6.0 range-separated hybrid DFT and stability analysis
  Lukas Wittmann         : regularized MP2, r2SCAN double-hybrids, wr2SCAN        
                                                                         
We gratefully acknowledge several colleagues who have allowed us to      
interface, adapt or use parts of their codes:                            
  Ed Valeev, F. Pavosevic, A. Kumar             : LibInt (2-el integral package), F12 methods 
  Garnet Chan, S. Sharma, J. Yang, R. Olivares  : DMRG                   
  Ulf Ekstrom                                   : XCFun DFT Library      
  Mihaly Kallay                                 : mrcc  (arbitrary order and MRCC methods)
  Frank Weinhold                                : gennbo (NPA and NBO analysis)           
  Simon Mueller                                 : openCOSMO-RS                            
  Christopher J. Cramer and Donald G. Truhlar   : smd solvation model                     
  S Lehtola, MJT Oliveira, MAL Marques          : LibXC Library                           
  Liviu Ungur et al                             : ANISO software                          


 Your calculation uses the libint2 library for the computation of 2-el integrals
 For citations please refer to: http://libint.valeyev.net

 Your ORCA version has been built with support for libXC version: 7.0.0
 For citations please refer to: https://libxc.gitlab.io

 This ORCA versions uses:
   CBLAS   interface :  Fast vector & matrix operations
   LAPACKE interface :  Fast linear algebra routines
   SCALAPACK package :  Parallel linear algebra routines
   Shared memory     :  Shared parallel matrices


  ***********************************
  * Starting time: Wed Jul  9 18:07:58 2025
  * Host name:     MacBook-Air-3.local
  * Process ID:    75176
  * Working dir.:  /Users/blenl/Desktop/Folders/Projects/DFT2/edonating/amide/freq
  ***********************************

NOTE: MaxCore=16384 MB was set to SCF,MP2,MDCI,CIPSI,MRCI,RASCI and CIS
      => If you want to overwrite this, your respective input block should be placed after the MaxCore statement
Warning: RI is on but no J-basis has been assigned. Assigning Def2/J (nothing to worry about!)
================================================================================

----- Orbital basis set information -----
Your calculation utilizes the basis: def2-TZVP
   F. Weigend and R. Ahlrichs, Phys. Chem. Chem. Phys. 7, 3297 (2005).

----- AuxJ basis set information -----
Your calculation utilizes the auxiliary basis: def2/J
   H-Rn: F. Weigend, Phys. Chem. Chem. Phys. 8, 1057 (2006).
   Fr-Lr: K. Eichkorn, F. Weigend, O. Treutler, R. Ahlrichs; Theor. Chem. Acc. 97, 119 (1997).

================================================================================
                                        WARNINGS
                       Please study these warnings very carefully!
================================================================================


WARNING: Geometry Optimization
  ===> : Switching off AutoStart
         For restart on a previous wavefunction, please use MOREAD

================================================================================
                                       INPUT FILE
================================================================================
NAME = job.inp
|  1> # avogadro generated ORCA file
|  2> # C6H7N | Frequencies | revPBE/def2-TZVP
|  3> # 
|  4> ! Opt Freq revPBE def2-TZVP 
|  5> 
|  6> %maxcore 16384
|  7> 
|  8> %pal
|  9>    nprocs 1
| 10> end
| 11> 
| 12> * xyz 0 1
| 13>    C     -3.009159    1.743655    0.060137
| 14>    C     -3.056828    0.347057    0.065177
| 15>    H      0.357988    2.160812   -0.062885
| 16>    H     -1.740842    3.484447    0.020917
| 17>    C     -1.780273    2.398623    0.032063
| 18>    C     -1.880917   -0.407630    0.086352
| 19>    H     -1.098192   -2.270588    0.296111
| 20>    H     -2.781412   -2.209237    0.351066
| 21>    C     -0.602754    1.655995   -0.010271
| 22>    N     -1.935509   -1.802016   -0.034885
| 23>    H     -4.024051   -0.147711    0.052652
| 24>    C     -0.656596    0.259574   -0.005453
| 25>    H     -3.931863    2.317466    0.062250
| 26>    H      0.269569   -0.304446   -0.073387
| 27> *
| 28> 
| 29> 
| 30> 
| 31>                          ****END OF INPUT****
================================================================================

                       *****************************
                       * Geometry Optimization Run *
                       *****************************

Geometry optimization settings:
Update method            Update   .... BFGS
Choice of coordinates    CoordSys .... (2022) Redundant Internals
Initial Hessian          InHess   .... Almloef's Model
Max. no of cycles        MaxIter  .... 50

Convergence Tolerances:
Energy Change            TolE     ....  5.0000e-06 Eh
Max. Gradient            TolMAXG  ....  3.0000e-04 Eh/bohr
RMS Gradient             TolRMSG  ....  1.0000e-04 Eh/bohr
Max. Displacement        TolMAXD  ....  4.0000e-03 bohr
RMS Displacement         TolRMSD  ....  2.0000e-03 bohr
Strict Convergence                .... False

------------------------------------------------------------------------------
                        ORCA OPTIMIZATION COORDINATE SETUP
------------------------------------------------------------------------------

The optimization will be done in redundant internal coordinates (2022)
Making redundant internal coordinates   ...  (2022 redundants) done
Evaluating the initial hessian          ...  (Almloef) done
Evaluating the coordinates              ...  done
Calculating the B-matrix                .... done
Calculating the G-matrix                .... done
The number of degrees of freedom        ....   63

    -----------------------------------------------------------------
                    Redundant Internal Coordinates


    -----------------------------------------------------------------
         Definition                    Initial Value    Approx d2E/dq
    -----------------------------------------------------------------
      1. B(C   1,C   0)                  1.3974         0.607995   
      2. B(C   4,C   0)                  1.3928         0.618370   
      3. B(C   4,H   3)                  1.0866         0.364630   
      4. B(C   5,C   1)                  1.3974         0.608008   
      5. B(C   8,C   4)                  1.3928         0.618445   
      6. B(C   8,H   2)                  1.0866         0.364667   
      7. B(N   9,C   5)                  1.4007         0.538006   
      8. B(N   9,H   7)                  1.0151         0.424745   
      9. B(N   9,H   6)                  1.0150         0.424838   
     10. B(H  10,C   1)                  1.0865         0.364766   
     11. B(C  11,C   8)                  1.3975         0.607891   
     12. B(C  11,C   5)                  1.3973         0.608181   
     13. B(H  12,C   0)                  1.0866         0.364659   
     14. B(H  13,C  11)                  1.0865         0.364740   
     15. A(C   4,C   0,H  12)          120.0626         0.353504   
     16. A(C   1,C   0,C   4)          120.0093         0.432338   
     17. A(C   1,C   0,H  12)          119.9210         0.352493   
     18. A(C   0,C   1,H  10)          119.0411         0.352510   
     19. A(C   0,C   1,C   5)          120.7365         0.431027   
     20. A(C   5,C   1,H  10)          120.2223         0.352512   
     21. A(H   3,C   4,C   8)          120.1209         0.353506   
     22. A(C   0,C   4,H   3)          120.1415         0.353499   
     23. A(C   0,C   4,C   8)          119.7236         0.433665   
     24. A(C   1,C   5,N   9)          120.2327         0.418952   
     25. A(C   1,C   5,C  11)          118.5832         0.431051   
     26. A(N   9,C   5,C  11)          120.2510         0.418973   
     27. A(H   2,C   8,C  11)          119.8997         0.352484   
     28. A(H   2,C   8,C   4)          120.0853         0.353512   
     29. A(C   4,C   8,C  11)          120.0080         0.432334   
     30. A(H   6,N   9,H   7)          112.2269         0.301474   
     31. A(C   5,N   9,H   7)          113.5119         0.349053   
     32. A(C   5,N   9,H   6)          113.5273         0.349065   
     33. A(C   8,C  11,H  13)          119.0559         0.352496   
     34. A(C   5,C  11,H  13)          120.2063         0.352524   
     35. A(C   5,C  11,C   8)          120.7378         0.431036   
     36. D(C   5,C   1,C   0,C   4)      2.1017         0.025521   
     37. D(H  10,C   1,C   0,C   4)   -177.9153         0.025521   
     38. D(C   5,C   1,C   0,H  12)   -178.8653         0.025521   
     39. D(H  10,C   1,C   0,H  12)      1.1177         0.025521   
     40. D(H   3,C   4,C   0,H  12)      0.5308         0.026451   
     41. D(C   8,C   4,C   0,C   1)      0.9179         0.026451   
     42. D(C   8,C   4,C   0,H  12)   -178.1138         0.026451   
     43. D(H   3,C   4,C   0,C   1)    179.5625         0.026451   
     44. D(C  11,C   5,C   1,H  10)    174.9755         0.025522   
     45. D(C  11,C   5,C   1,C   0)     -5.0417         0.025522   
     46. D(N   9,C   5,C   1,H  10)      6.0003         0.025522   
     47. D(N   9,C   5,C   1,C   0)   -174.0169         0.025522   
     48. D(C  11,C   8,C   4,C   0)     -0.8989         0.026458   
     49. D(H   2,C   8,C   4,H   3)     -0.5081         0.026458   
     50. D(H   2,C   8,C   4,C   0)    178.1367         0.026458   
     51. D(C  11,C   8,C   4,H   3)   -179.5437         0.026458   
     52. D(H   7,N   9,C   5,C  11)    160.2956         0.023018   
     53. D(H   7,N   9,C   5,C   1)    -30.9140         0.023018   
     54. D(H   6,N   9,C   5,C  11)     30.5529         0.023018   
     55. D(H   6,N   9,C   5,C   1)   -160.6568         0.023018   
     56. D(H  13,C  11,C   8,C   4)    177.9139         0.025511   
     57. D(C   5,C  11,C   8,C   4)     -2.1404         0.025511   
     58. D(C   5,C  11,C   8,H   2)    178.8222         0.025511   
     59. D(H  13,C  11,C   5,N   9)     -6.0209         0.025537   
     60. D(H  13,C  11,C   5,C   1)   -174.9939         0.025537   
     61. D(H  13,C  11,C   8,H   2)     -1.1235         0.025511   
     62. D(C   8,C  11,C   5,N   9)    174.0341         0.025537   
     63. D(C   8,C  11,C   5,C   1)      5.0611         0.025537   
    -----------------------------------------------------------------

Number of atoms                         .... 14
Number of degrees of freedom            .... 63


         *************************************************************
         *                GEOMETRY OPTIMIZATION CYCLE   1            *
         *************************************************************
---------------------------------
CARTESIAN COORDINATES (ANGSTROEM)
---------------------------------
  C     -3.009159    1.743655    0.060137
  C     -3.056828    0.347057    0.065177
  H      0.357988    2.160812   -0.062885
  H     -1.740842    3.484447    0.020917
  C     -1.780273    2.398623    0.032063
  C     -1.880917   -0.407630    0.086352
  H     -1.098192   -2.270588    0.296111
  H     -2.781412   -2.209237    0.351066
  C     -0.602754    1.655995   -0.010271
  N     -1.935509   -1.802016   -0.034885
  H     -4.024051   -0.147711    0.052652
  C     -0.656596    0.259574   -0.005453
  H     -3.931863    2.317466    0.062250
  H      0.269569   -0.304446   -0.073387

----------------------------
CARTESIAN COORDINATES (A.U.)
----------------------------
  NO LB      ZA    FRAG     MASS         X           Y           Z
   0 C     6.0000    0    12.011   -5.686486    3.295030    0.113642
   1 C     6.0000    0    12.011   -5.776568    0.655843    0.123167
   2 H     1.0000    0     1.008    0.676499    4.083343   -0.118835
   3 H     1.0000    0     1.008   -3.289715    6.584651    0.039527
   4 C     6.0000    0    12.011   -3.364228    4.532741    0.060590
   5 C     6.0000    0    12.011   -3.554418   -0.770309    0.163182
   6 H     1.0000    0     1.008   -2.075282   -4.290789    0.559569
   7 H     1.0000    0     1.008   -5.256107   -4.174853    0.663419
   8 C     6.0000    0    12.011   -1.139040    3.129377   -0.019409
   9 N     7.0000    0    14.007   -3.657582   -3.405317   -0.065923
  10 H     1.0000    0     1.008   -7.604354   -0.279133    0.099498
  11 C     6.0000    0    12.011   -1.240787    0.490524   -0.010305
  12 H     1.0000    0     1.008   -7.430144    4.379376    0.117635
  13 H     1.0000    0     1.008    0.509412   -0.575320   -0.138681

--------------------------------
INTERNAL COORDINATES (ANGSTROEM)
--------------------------------
 C      0   0   0     0.000000000000     0.00000000     0.00000000
 C      1   0   0     1.397420376538     0.00000000     0.00000000
 H      1   2   0     3.395119039849    99.01883234     0.00000000
 H      1   2   3     2.154187319653   145.87045243   359.48479093
 C      4   1   2     1.086596887559    33.99623156   359.32473472
 C      2   1   3     1.397414587198   120.73654621     2.95702240
 H      6   2   1     2.031568303914   145.18623982   170.57074179
 H      7   6   2     1.685233979489    65.49092465     2.26024913
 C      3   1   2     1.086569660468    20.65002974   357.51916052
 N      7   6   2     1.014996467821    39.20941135    30.08346380
 H      2   1   3     1.086495550464   119.04114144   182.94002751
 C      6   2   1     1.397337198632   118.58316510   354.95827770
 H      1   2   3     1.086575446118   119.92103293   178.17772083
 H     12   6   2     1.086515161413   120.20631181   185.00607216

---------------------------
INTERNAL COORDINATES (A.U.)
---------------------------
 C      0   0   0     0.000000000000     0.00000000     0.00000000
 C      1   0   0     2.640741805619     0.00000000     0.00000000
 H      1   2   0     6.415845177375    99.01883234     0.00000000
 H      1   2   3     4.070824075310   145.87045243   359.48479093
 C      4   1   2     2.053370535458    33.99623156   359.32473472
 C      2   1   3     2.640730865352   120.73654621     2.95702240
 H      6   2   1     3.839107716753   145.18623982   170.57074179
 H      7   6   2     3.184630692813    65.49092465     2.26024913
 C      3   1   2     2.053319083712    20.65002974   357.51916052
 N      7   6   2     1.918065351079    39.20941135    30.08346380
 H      2   1   3     2.053179036101   119.04114144   182.94002751
 C      6   2   1     2.640584622156   118.58316510   354.95827770
 H      1   2   3     2.053330017006   119.92103293   178.17772083
 H     12   6   2     2.053216095424   120.20631181   185.00607216

---------------------
BASIS SET INFORMATION
---------------------
There are 3 groups of distinct atoms

 Group   1 Type C   : 11s6p2d1f contracted to 5s3p2d1f pattern {62111/411/11/1}
 Group   2 Type H   : 5s1p contracted to 3s1p pattern {311/1}
 Group   3 Type N   : 11s6p2d1f contracted to 5s3p2d1f pattern {62111/411/11/1}

Atom   0C    basis set group =>   1
Atom   1C    basis set group =>   1
Atom   2H    basis set group =>   2
Atom   3H    basis set group =>   2
Atom   4C    basis set group =>   1
Atom   5C    basis set group =>   1
Atom   6H    basis set group =>   2
Atom   7H    basis set group =>   2
Atom   8C    basis set group =>   1
Atom   9N    basis set group =>   3
Atom  10H    basis set group =>   2
Atom  11C    basis set group =>   1
Atom  12H    basis set group =>   2
Atom  13H    basis set group =>   2
---------------------------------
AUXILIARY/J BASIS SET INFORMATION
---------------------------------
There are 3 groups of distinct atoms

 Group   1 Type C   : 12s5p4d2f1g contracted to 6s4p3d1f1g pattern {711111/2111/211/2/1}
 Group   2 Type H   : 5s2p1d contracted to 3s1p1d pattern {311/2/1}
 Group   3 Type N   : 12s5p4d2f1g contracted to 6s4p3d1f1g pattern {711111/2111/211/2/1}

Atom   0C    basis set group =>   1
Atom   1C    basis set group =>   1
Atom   2H    basis set group =>   2
Atom   3H    basis set group =>   2
Atom   4C    basis set group =>   1
Atom   5C    basis set group =>   1
Atom   6H    basis set group =>   2
Atom   7H    basis set group =>   2
Atom   8C    basis set group =>   1
Atom   9N    basis set group =>   3
Atom  10H    basis set group =>   2
Atom  11C    basis set group =>   1
Atom  12H    basis set group =>   2
Atom  13H    basis set group =>   2
------------------------------------------------------------------------------
                             ORCA STARTUP CALCULATIONS
                           -- RI-GTO INTEGRALS CHOSEN --
------------------------------------------------------------------------------
------------------------------------------------------------------------------
                   ___                                                        
                  /   \      - P O W E R E D   B Y -                         
                 /     \                                                     
                 |  |  |   _    _      __       _____    __    __             
                 |  |  |  | |  | |    /  \     |  _  \  |  |  /  |          
                  \  \/   | |  | |   /    \    | | | |  |  | /  /          
                 / \  \   | |__| |  /  /\  \   | |_| |  |  |/  /          
                |  |  |   |  __  | /  /__\  \  |    /   |      \           
                |  |  |   | |  | | |   __   |  |    \   |  |\   \          
                \     /   | |  | | |  |  |  |  | |\  \  |  | \   \       
                 \___/    |_|  |_| |__|  |__|  |_| \__\ |__|  \__/        
                                                                              
                      - O R C A' S   B I G   F R I E N D -                    
                                      &                                       
                       - I N T E G R A L  F E E D E R -                       
                                                                              
 v1 FN, 2020, v2 2021, v3 2022-2024                                           
------------------------------------------------------------------------------


----------------------
SHARK INTEGRAL PACKAGE
----------------------

Number of atoms                             ...     14
Number of basis functions                   ...    259
Number of shells                            ...    105
Maximum angular momentum                    ...      3
Integral batch strategy                     ... SHARK/LIBINT Hybrid
RI-J (if used) integral strategy            ... SPLIT-RIJ (Revised 2003 algorithm where possible)
Printlevel                                  ...      1
Contraction scheme used                     ... SEGMENTED contraction
Prescreening option                         ... SCHWARTZ
   Thresh                                   ... 2.500e-11
   Tcut                                     ... 2.500e-12
   Tpresel                                  ... 2.500e-12 
Coulomb Range Separation                    ... NOT USED
Exchange Range Separation                   ... NOT USED
Multipole approximations                    ... NOT USED
Finite Nucleus Model                        ... NOT USED
CABS basis                                  ... NOT available
Auxiliary Coulomb fitting basis             ... AVAILABLE
   # of basis functions in Aux-J            ...    420
   # of shells in Aux-J                     ...    140
   Maximum angular momentum in Aux-J        ...      4
Auxiliary J/K fitting basis                 ... NOT available
Auxiliary Correlation fitting basis         ... NOT available
Auxiliary 'external' fitting basis          ... NOT available

Checking pre-screening integrals            ... done (  0.0 sec) Dimension = 105
   => SHARK Basis and OBASIS are compatible. Storing Pre-screening
Shell pair information
Shell pair cut-off parameter TPreSel        ...   2.5e-12
Total number of shell pairs                 ...      5565
Shell pairs after pre-screening             ...      5240
Total number of primitive shell pairs       ...     16828
Primitive shell pairs kept                  ...     12283
          la=0 lb=0:   1434 shell pairs
          la=1 lb=0:   1481 shell pairs
          la=1 lb=1:    392 shell pairs
          la=2 lb=0:    754 shell pairs
          la=2 lb=1:    383 shell pairs
          la=2 lb=2:    104 shell pairs
          la=3 lb=0:    373 shell pairs
          la=3 lb=1:    193 shell pairs
          la=3 lb=2:     98 shell pairs
          la=3 lb=3:     28 shell pairs

Checking whether 4 symmetric matrices of dimension 259 fit in memory
:Max Core in MB      =  16384.00
 MB in use           =      8.61
 MB left             =  16375.39
 MB needed           =      1.03
 Data fit in memory  = YES
Calculating RI/J V-Matrix + Cholesky decomp.... done (  0.0 sec)
Calculating Nuclear repulsion               ... done (  0.0 sec) ENN=    271.405264920352 Eh

Diagonalization of the overlap matrix:
Smallest eigenvalue                        ... 1.133e-05
Time for diagonalization                   ...    0.003 sec
Threshold for overlap eigenvalues          ... 1.000e-07
Number of eigenvalues below threshold      ... 0
Time for construction of square roots      ...    0.000 sec
Total time needed                          ...    0.004 sec

-------------------
DFT GRID GENERATION
-------------------

General Integration Accuracy     IntAcc      ... 4.388
Radial Grid Type                 RadialGrid  ... OptM3 with GC (2021)
Angular Grid (max. ang.)         AngularGrid ... 4 (Lebedev-302)
Angular grid pruning method      GridPruning ... 4 (adaptive)
Weight generation scheme         WeightScheme... mBecke (2022)
Basis function cutoff            BFCut       ... 1.0000e-11
Integration weight cutoff        WCut        ... 1.0000e-14
Partially contracted basis set               ... off
Rotationally invariant grid construction     ... off
Angular grids for H and He will be reduced by one unit

Total number of grid points                  ...    64707
Total number of batches                      ...     1020
Average number of points per batch           ...       63
Average number of grid points per atom       ...     4622
Grids setup in   0.3 sec
Initializing property integral containers    ... done (  0.0 sec)

SHARK setup successfully completed in   0.3 seconds

Maximum memory used throughout the entire STARTUP-calculation: 36.1 MB
-------------------------------------------------------------------------------
                                 ORCA GUESS
                   Start orbitals & Density for SCF / CASSCF
-------------------------------------------------------------------------------

------------
SCF SETTINGS
------------
Hamiltonian:
 Density Functional     Method          .... DFT(GTOs)
 Exchange Functional    Exchange        .... PBE
   PBE kappa parameter   XKappa         ....  1.245000
   PBE mue parameter    XMuePBE         ....  0.219520
 Correlation Functional Correlation     .... PBE
   PBE beta parameter  CBetaPBE         ....  0.066725
 LDA part of GGA corr.  LDAOpt          .... PW91-LDA
 Gradients option       PostSCFGGA      .... off
   NL short-range parameter             ....  3.700000
 RI-approximation to the Coulomb term is turned on
   Number of AuxJ basis functions       .... 420


General Settings:
 Integral files         IntName         .... job
 Hartree-Fock type      HFTyp           .... RHF
 Total Charge           Charge          ....    0
 Multiplicity           Mult            ....    1
 Number of Electrons    NEL             ....   50
 Basis Dimension        Dim             ....  259
 Nuclear Repulsion      ENuc            ....    271.4052649204 Eh

Convergence Acceleration:
 AO-DIIS                CNVDIIS         .... on
   Start iteration      DIISMaxIt       ....    12
   Startup error        DIISStart       ....  0.200000
   # of expansion vecs  DIISMaxEq       ....     5
   Bias factor          DIISBfac        ....   1.050
   Max. coefficient     DIISMaxC        ....  10.000
 MO-DIIS                CNVKDIIS        .... off
 Trust-Rad. Augm. Hess. CNVTRAH         .... auto
   Auto Start mean grad. ratio tolernc. ....  1.125000
   Auto Start start iteration           ....    50
   Auto Start num. interpolation iter.  ....    10
   Max. Number of Micro iterations      ....    24
   Max. Number of Macro iterations      .... Maxiter - #DIIS iter
   Number of Davidson start vectors     ....     2
   Converg. threshold    (grad. norm)   ....   1.000e-05
   Grad. Scal. Fac. for Micro threshold ....   0.100
   Minimum threshold for Micro iter.    ....   1.000e-02
   NR start threshold (gradient norm)   ....   1.000e-04
   Initial trust radius                 ....   0.400
   Minimum AH scaling param. (alpha)    ....   1.000
   Maximum AH scaling param. (alpha)    .... 1000.000
   Quad. conv. algorithm                .... NR
   White noise on init. David. guess    .... on
   Maximum white noise                  ....   0.010
   Pseudo random numbers                .... off
   Inactive MOs                         .... canonical
   Orbital update algorithm             .... Taylor
   Preconditioner                       .... Diag
   Full preconditioner red. dimension   ....   250
 SOSCF                 CNVSOSCF           .... on
   Start iteration     SOSCFMaxIt         ....   150
   Startup grad/error  SOSCFStart         ....  0.003300
   Hessian update      SOSCFHessUp        .... L-BFGS
   Autom. constraints  SOSCFAutoConstrain .... off
 Level Shifting         CNVShift        .... on
   Level shift para.    LevelShift      ....    0.2500
   Turn off err/grad.   ShiftErr        ....    0.0010
 Zerner damping         CNVZerner       .... off
 Static damping         CNVDamp         .... on
   Fraction old density DampFac         ....    0.7000
   Max. Damping (<1)    DampMax         ....    0.9800
   Min. Damping (>=0)   DampMin         ....    0.0000
   Turn off err/grad.   DampErr         ....    0.1000

SCF Procedure:
 Maximum # iterations   MaxIter         ....   125
 SCF integral mode      SCFMode         .... Direct
   Integral package                     .... SHARK and LIBINT hybrid scheme
 Reset frequency        DirectResetFreq ....    20
 Integral Threshold     Thresh          ....  2.500e-11 Eh
 Primitive CutOff       TCut            ....  2.500e-12 Eh

Convergence Tolerance:
 Convergence Check Mode ConvCheckMode   .... Total+1el-Energy
 Convergence forced     ConvForced      .... 0
 Energy Change          TolE            ....  1.000e-08 Eh
 1-El. energy change                    ....  1.000e-05 Eh
 Orbital Gradient       TolG            ....  1.000e-05
 Orbital Rotation angle TolX            ....  1.000e-05
 DIIS Error             TolErr          ....  5.000e-07

------------------------------
INITIAL GUESS: MODEL POTENTIAL
------------------------------
Loading Hartree-Fock densities                     ... done
Calculating cut-offs                               ... done
Initializing the effective Hamiltonian             ... done
Setting up the integral package (SHARK)            ... done
Starting the Coulomb interaction                   ... done (   0.1 sec)
Making the grid                                    ... done (   0.1 sec)
Mapping shells                                     ... done
Starting the XC term evaluation                    ... done (   0.2 sec)
  promolecular density results
     # of electrons  =     49.996186618
     EX              =    -39.558863919
     EC              =     -1.643675273
     EX+EC           =    -41.202539192
Transforming the Hamiltonian                       ... done (   0.0 sec)
Diagonalizing the Hamiltonian                      ... done (   0.0 sec)
Back transforming the eigenvectors                 ... done (   0.0 sec)
Now organizing SCF variables                       ... done
                      ------------------
                      INITIAL GUESS DONE (   0.3 sec)
                      ------------------
             **** ENERGY FILE WAS UPDATED (job.en.tmp) ****
Finished Guess after   0.4 sec
Maximum memory used throughout the entire GUESS-calculation: 21.6 MB

-------------------------------------------------------------------------------------------
                                      ORCA LEAN-SCF
                              memory conserving SCF solver
-------------------------------------------------------------------------------------------

----------------------------------------D-I-I-S--------------------------------------------
Iteration    Energy (Eh)           Delta-E    RMSDP     MaxDP     DIISErr   Damp  Time(sec)
-------------------------------------------------------------------------------------------
               ***  Starting incremental Fock matrix formation  ***
    1    -287.4432296894353840     0.00e+00  2.02e-03  5.07e-02  2.29e-01  0.700   0.8
    2    -287.5349642198939364    -9.17e-02  1.61e-03  4.47e-02  9.73e-02  0.700   0.7
                               ***Turning on AO-DIIS***
    3    -287.5671882356435844    -3.22e-02  5.38e-04  1.08e-02  2.13e-02  0.700   0.7
    4    -287.5860360760574395    -1.88e-02  7.95e-04  1.49e-02  1.02e-02  0.000   0.6
    5    -287.6289094444085777    -4.29e-02  3.71e-04  1.07e-02  1.09e-02  0.000   0.6
                              *** Initializing SOSCF ***
---------------------------------------S-O-S-C-F--------------------------------------
Iteration    Energy (Eh)           Delta-E    RMSDP     MaxDP     MaxGrad    Time(sec)
--------------------------------------------------------------------------------------
    6    -287.6293642973867009    -4.55e-04  1.59e-04  4.67e-03  1.52e-03     0.6
               *** Restarting incremental Fock matrix formation ***
    7    -287.6293924549928533    -2.82e-05  1.07e-04  2.22e-03  2.80e-04     0.7
    8    -287.6293881702226827     4.28e-06  3.17e-05  7.54e-04  6.23e-04     0.6
    9    -287.6293954849279544    -7.31e-06  2.20e-05  4.58e-04  1.51e-04     0.6
   10    -287.6293948907377853     5.94e-07  8.22e-06  1.91e-04  2.16e-04     0.6
   11    -287.6293957227950386    -8.32e-07  6.78e-06  2.18e-04  2.76e-05     0.6
   12    -287.6293957055236206     1.73e-08  2.37e-06  7.37e-05  3.93e-05     0.5
   13    -287.6293957473500313    -4.18e-08  4.56e-06  1.65e-04  8.35e-06     0.5
   14    -287.6293957465325093     8.18e-10  1.96e-06  6.87e-05  5.36e-06     0.5
                 **** Energy Check signals convergence ****

               *****************************************************
               *                     SUCCESS                       *
               *           SCF CONVERGED AFTER  14 CYCLES          *
               *****************************************************

             **** ENERGY FILE WAS UPDATED (job.en.tmp) ****

----------------
TOTAL SCF ENERGY
----------------

Total Energy       :       -287.62939574497909 Eh           -7826.79376 eV

Components:
Nuclear Repulsion  :        271.40526492035247 Eh            7385.31272 eV
Electronic Energy  :       -559.03466066533156 Eh          -15212.10649 eV
One Electron Energy:       -924.80733795770573 Eh          -25165.28704 eV
Two Electron Energy:        365.77267729237423 Eh            9953.18056 eV

Virial components:
Potential Energy   :       -574.09343283851149 Eh          -15621.87651 eV
Kinetic Energy     :        286.46403709353245 Eh            7795.08274 eV
Virial Ratio       :          2.00406808010971

DFT components:
N(Alpha)           :       25.000007503929 electrons
N(Beta)            :       25.000007503929 electrons
N(Total)           :       50.000015007857 electrons
E(X)               :      -40.416943922561 Eh       
E(C)               :       -1.651158437062 Eh       
E(XC)              :      -42.068102359623 Eh       

---------------
SCF CONVERGENCE
---------------

  Last Energy change         ...   -8.1752e-10  Tolerance :   1.0000e-08
  Last MAX-Density change    ...    6.8694e-05  Tolerance :   1.0000e-07
  Last RMS-Density change    ...    1.9587e-06  Tolerance :   5.0000e-09
  Last DIIS Error            ...    1.5153e-03  Tolerance :   5.0000e-07
  Last Orbital Gradient      ...    5.3645e-06  Tolerance :   1.0000e-05
  Last Orbital Rotation      ...    1.3355e-05  Tolerance :   1.0000e-05


----------------
ORBITAL ENERGIES
----------------

  NO   OCC          E(Eh)            E(eV) 
   0   2.0000     -14.002116      -381.0169 
   1   2.0000      -9.928763      -270.1754 
   2   2.0000      -9.889449      -269.1056 
   3   2.0000      -9.889443      -269.1054 
   4   2.0000      -9.885853      -269.0077 
   5   2.0000      -9.885840      -269.0074 
   6   2.0000      -9.879722      -268.8409 
   7   2.0000      -0.840647       -22.8752 
   8   2.0000      -0.758143       -20.6301 
   9   2.0000      -0.669326       -18.2133 
  10   2.0000      -0.653803       -17.7909 
  11   2.0000      -0.549149       -14.9431 
  12   2.0000      -0.533914       -14.5285 
  13   2.0000      -0.468897       -12.7593 
  14   2.0000      -0.455837       -12.4040 
  15   2.0000      -0.420632       -11.4460 
  16   2.0000      -0.380708       -10.3596 
  17   2.0000      -0.376229       -10.2377 
  18   2.0000      -0.364630        -9.9221 
  19   2.0000      -0.339238        -9.2311 
  20   2.0000      -0.305874        -8.3233 
  21   2.0000      -0.294642        -8.0176 
  22   2.0000      -0.272861        -7.4249 
  23   2.0000      -0.220397        -5.9973 
  24   2.0000      -0.179784        -4.8922 
  25   0.0000      -0.033887        -0.9221 
  26   0.0000      -0.017660        -0.4806 
  27   0.0000       0.014156         0.3852 
  28   0.0000       0.037736         1.0268 
  29   0.0000       0.048934         1.3316 
  30   0.0000       0.078496         2.1360 
  31   0.0000       0.080117         2.1801 
  32   0.0000       0.107060         2.9133 
  33   0.0000       0.110528         3.0076 
  34   0.0000       0.111907         3.0451 
  35   0.0000       0.133444         3.6312 
*Only the first 10 virtual orbitals were printed.

                    ********************************
                    * MULLIKEN POPULATION ANALYSIS *
                    ********************************

-----------------------
MULLIKEN ATOMIC CHARGES
-----------------------
   0 C :   -0.081436
   1 C :   -0.204472
   2 H :    0.079936
   3 H :    0.077216
   4 C :   -0.103331
   5 C :    0.276981
   6 H :    0.216356
   7 H :    0.216496
   8 C :   -0.081364
   9 N :   -0.401034
  10 H :    0.064460
  11 C :   -0.204170
  12 H :    0.079941
  13 H :    0.064422
Sum of atomic charges:   -0.0000000

--------------------------------
MULLIKEN REDUCED ORBITAL CHARGES
--------------------------------
  0 C s       :     3.156987  s :     3.156987
      pz      :     0.962659  p :     2.824890
      px      :     0.936071
      py      :     0.926160
      dz2     :     0.004326  d :     0.092432
      dxz     :     0.009812
      dyz     :     0.020816
      dx2y2   :     0.022898
      dxy     :     0.034580
      f0      :     0.001485  f :     0.007128
      f+1     :     0.000608
      f-1     :     0.000566
      f+2     :     0.001080
      f-2     :     0.000372
      f+3     :     0.002197
      f-3     :     0.000820

  1 C s       :     3.239270  s :     3.239270
      pz      :     1.038661  p :     2.872637
      px      :     0.912568
      py      :     0.921408
      dz2     :     0.005359  d :     0.085460
      dxz     :     0.007982
      dyz     :     0.018004
      dx2y2   :     0.022852
      dxy     :     0.031263
      f0      :     0.001505  f :     0.007105
      f+1     :     0.000643
      f-1     :     0.000571
      f+2     :     0.000819
      f-2     :     0.000499
      f+3     :     0.002182
      f-3     :     0.000887

  2 H s       :     0.898298  s :     0.898298
      pz      :     0.005071  p :     0.021766
      px      :     0.010804
      py      :     0.005891

  3 H s       :     0.900836  s :     0.900836
      pz      :     0.005480  p :     0.021949
      px      :     0.003988
      py      :     0.012481

  4 C s       :     3.150384  s :     3.150384
      pz      :     1.008399  p :     2.856723
      px      :     0.921687
      py      :     0.926637
      dz2     :     0.004631  d :     0.089207
      dxz     :     0.021439
      dyz     :     0.005049
      dx2y2   :     0.037972
      dxy     :     0.020117
      f0      :     0.001500  f :     0.007017
      f+1     :     0.000530
      f-1     :     0.000657
      f+2     :     0.000173
      f-2     :     0.001130
      f+3     :     0.002225
      f-3     :     0.000802

  5 C s       :     2.993735  s :     2.993735
      pz      :     0.902298  p :     2.562989
      px      :     0.876563
      py      :     0.784129
      dz2     :     0.006150  d :     0.153603
      dxz     :     0.023381
      dyz     :     0.042372
      dx2y2   :     0.041293
      dxy     :     0.040407
      f0      :     0.001982  f :     0.012692
      f+1     :     0.000594
      f-1     :     0.001114
      f+2     :     0.002017
      f-2     :     0.001122
      f+3     :     0.004415
      f-3     :     0.001447

  6 H s       :     0.747380  s :     0.747380
      pz      :     0.013181  p :     0.036263
      px      :     0.013782
      py      :     0.009300

  7 H s       :     0.747247  s :     0.747247
      pz      :     0.013514  p :     0.036257
      px      :     0.014126
      py      :     0.008617

  8 C s       :     3.156807  s :     3.156807
      pz      :     0.961523  p :     2.824995
      px      :     0.936284
      py      :     0.927188
      dz2     :     0.004306  d :     0.092437
      dxz     :     0.008564
      dyz     :     0.022180
      dx2y2   :     0.025086
      dxy     :     0.032300
      f0      :     0.001481  f :     0.007126
      f+1     :     0.000616
      f-1     :     0.000556
      f+2     :     0.000940
      f-2     :     0.000519
      f+3     :     0.002199
      f-3     :     0.000816

  9 N s       :     3.463369  s :     3.463369
      pz      :     1.667585  p :     3.894541
      px      :     1.115891
      py      :     1.111065
      dz2     :     0.003311  d :     0.040429
      dxz     :     0.005370
      dyz     :     0.012236
      dx2y2   :     0.006659
      dxy     :     0.012854
      f0      :     0.000670  f :     0.002694
      f+1     :     0.000203
      f-1     :     0.000412
      f+2     :     0.000225
      f-2     :     0.000184
      f+3     :     0.000470
      f-3     :     0.000531

 10 H s       :     0.913516  s :     0.913516
      pz      :     0.005568  p :     0.022024
      px      :     0.010861
      py      :     0.005596

 11 C s       :     3.238763  s :     3.238763
      pz      :     1.040607  p :     2.872731
      px      :     0.910775
      py      :     0.921349
      dz2     :     0.005520  d :     0.085571
      dxz     :     0.008974
      dyz     :     0.016931
      dx2y2   :     0.021450
      dxy     :     0.032695
      f0      :     0.001482  f :     0.007106
      f+1     :     0.000662
      f-1     :     0.000573
      f+2     :     0.000924
      f-2     :     0.000397
      f+3     :     0.002206
      f-3     :     0.000863

 12 H s       :     0.898298  s :     0.898298
      pz      :     0.005053  p :     0.021761
      px      :     0.010275
      py      :     0.006433

 13 H s       :     0.913557  s :     0.913557
      pz      :     0.005590  p :     0.022021
      px      :     0.010319
      py      :     0.006113



                     *******************************
                     * LOEWDIN POPULATION ANALYSIS *
                     *******************************

----------------------
LOEWDIN ATOMIC CHARGES
----------------------
   0 C :   -0.143083
   1 C :   -0.134487
   2 H :    0.139735
   3 H :    0.137491
   4 C :   -0.166387
   5 C :   -0.252055
   6 H :    0.160904
   7 H :    0.160975
   8 C :   -0.143086
   9 N :   -0.040911
  10 H :    0.137873
  11 C :   -0.134564
  12 H :    0.139741
  13 H :    0.137855

-------------------------------
LOEWDIN REDUCED ORBITAL CHARGES
-------------------------------
  0 C s       :     2.769946  s :     2.769946
      pz      :     0.883923  p :     2.937451
      px      :     1.011463
      py      :     1.042065
      dz2     :     0.025444  d :     0.392697
      dxz     :     0.032207
      dyz     :     0.069091
      dx2y2   :     0.115311
      dxy     :     0.150644
      f0      :     0.002966  f :     0.042989
      f+1     :     0.003547
      f-1     :     0.004037
      f+2     :     0.007118
      f-2     :     0.002635
      f+3     :     0.014976
      f-3     :     0.007708

  1 C s       :     2.763500  s :     2.763500
      pz      :     0.936545  p :     2.958339
      px      :     0.983227
      py      :     1.038567
      dz2     :     0.026353  d :     0.370725
      dxz     :     0.024249
      dyz     :     0.059956
      dx2y2   :     0.116043
      dxy     :     0.144123
      f0      :     0.003133  f :     0.041923
      f+1     :     0.003592
      f-1     :     0.004145
      f+2     :     0.005448
      f-2     :     0.003303
      f+3     :     0.014387
      f-3     :     0.007914

  2 H s       :     0.801613  s :     0.801613
      pz      :     0.013645  p :     0.058652
      px      :     0.028939
      py      :     0.016068

  3 H s       :     0.803193  s :     0.803193
      pz      :     0.014777  p :     0.059316
      px      :     0.011170
      py      :     0.033369

  4 C s       :     2.767215  s :     2.767215
      pz      :     0.921370  p :     2.970855
      px      :     1.065976
      py      :     0.983509
      dz2     :     0.026064  d :     0.385323
      dxz     :     0.075293
      dyz     :     0.013326
      dx2y2   :     0.166984
      dxy     :     0.103656
      f0      :     0.003154  f :     0.042994
      f+1     :     0.004424
      f-1     :     0.003294
      f+2     :     0.001322
      f-2     :     0.007484
      f+3     :     0.015456
      f-3     :     0.007859

  5 C s       :     2.714351  s :     2.714351
      pz      :     0.849681  p :     2.827125
      px      :     1.068602
      py      :     0.908842
      dz2     :     0.039101  d :     0.633363
      dxz     :     0.079283
      dyz     :     0.142632
      dx2y2   :     0.203009
      dxy     :     0.169338
      f0      :     0.005249  f :     0.077216
      f+1     :     0.004506
      f-1     :     0.006677
      f+2     :     0.014207
      f-2     :     0.007733
      f+3     :     0.027049
      f-3     :     0.011795

  6 H s       :     0.731394  s :     0.731394
      pz      :     0.038926  p :     0.107702
      px      :     0.044434
      py      :     0.024342

  7 H s       :     0.731329  s :     0.731329
      pz      :     0.040386  p :     0.107696
      px      :     0.044885
      py      :     0.022425

  8 C s       :     2.769948  s :     2.769948
      pz      :     0.884130  p :     2.937449
      px      :     1.005774
      py      :     1.047545
      dz2     :     0.025373  d :     0.392700
      dxz     :     0.027530
      dyz     :     0.074030
      dx2y2   :     0.123791
      dxy     :     0.141975
      f0      :     0.002989  f :     0.042989
      f+1     :     0.003448
      f-1     :     0.004104
      f+2     :     0.006207
      f-2     :     0.003559
      f+3     :     0.014962
      f-3     :     0.007719

  9 N s       :     3.033698  s :     3.033698
      pz      :     1.547841  p :     3.855634
      px      :     1.135608
      py      :     1.172185
      dz2     :     0.007367  d :     0.141211
      dxz     :     0.013760
      dyz     :     0.031570
      dx2y2   :     0.031507
      dxy     :     0.057007
      f0      :     0.001131  f :     0.010368
      f+1     :     0.000283
      f-1     :     0.001226
      f+2     :     0.001952
      f-2     :     0.001504
      f+3     :     0.002434
      f-3     :     0.001839

 10 H s       :     0.802415  s :     0.802415
      pz      :     0.015219  p :     0.059711
      px      :     0.029052
      py      :     0.015440

 11 C s       :     2.763493  s :     2.763493
      pz      :     0.936966  p :     2.958390
      px      :     0.986241
      py      :     1.035183
      dz2     :     0.026470  d :     0.370757
      dxz     :     0.028255
      dyz     :     0.056681
      dx2y2   :     0.109180
      dxy     :     0.150171
      f0      :     0.003182  f :     0.041924
      f+1     :     0.003633
      f-1     :     0.004050
      f+2     :     0.006197
      f-2     :     0.002625
      f+3     :     0.014449
      f-3     :     0.007788

 12 H s       :     0.801608  s :     0.801608
      pz      :     0.013594  p :     0.058651
      px      :     0.027566
      py      :     0.017491

 13 H s       :     0.802439  s :     0.802439
      pz      :     0.015270  p :     0.059706
      px      :     0.027650
      py      :     0.016786



                      *****************************
                      * MAYER POPULATION ANALYSIS *
                      *****************************

  NA   - Mulliken gross atomic population
  ZA   - Total nuclear charge
  QA   - Mulliken gross atomic charge
  VA   - Mayer's total valence
  BVA  - Mayer's bonded valence
  FA   - Mayer's free valence

  ATOM       NA         ZA         QA         VA         BVA        FA
  0 C      6.0814     6.0000    -0.0814     4.0200     4.0200    -0.0000
  1 C      6.2045     6.0000    -0.2045     4.0438     4.0438    -0.0000
  2 H      0.9201     1.0000     0.0799     0.9643     0.9643    -0.0000
  3 H      0.9228     1.0000     0.0772     0.9651     0.9651    -0.0000
  4 C      6.1033     6.0000    -0.1033     3.9573     3.9573    -0.0000
  5 C      5.7230     6.0000     0.2770     3.8643     3.8643    -0.0000
  6 H      0.7836     1.0000     0.2164     0.9541     0.9541    -0.0000
  7 H      0.7835     1.0000     0.2165     0.9540     0.9540    -0.0000
  8 C      6.0814     6.0000    -0.0814     4.0206     4.0206    -0.0000
  9 N      7.4010     7.0000    -0.4010     3.0476     3.0476    -0.0000
 10 H      0.9355     1.0000     0.0645     0.9792     0.9792    -0.0000
 11 C      6.2042     6.0000    -0.2042     4.0440     4.0440    -0.0000
 12 H      0.9201     1.0000     0.0799     0.9643     0.9643    -0.0000
 13 H      0.9356     1.0000     0.0644     0.9792     0.9792    -0.0000

  Mayer bond orders larger than 0.100000
B(  0-C ,  1-C ) :   1.4654 B(  0-C ,  4-C ) :   1.4154 B(  0-C , 12-H ) :   0.9658 
B(  1-C ,  5-C ) :   1.3720 B(  1-C , 10-H ) :   0.9765 B(  2-H ,  8-C ) :   0.9659 
B(  3-H ,  4-C ) :   0.9650 B(  4-C ,  8-C ) :   1.4157 B(  5-C ,  9-N ) :   1.0451 
B(  5-C , 11-C ) :   1.3724 B(  6-H ,  9-N ) :   0.9253 B(  7-H ,  9-N ) :   0.9252 
B(  8-C , 11-C ) :   1.4657 B( 11-C , 13-H ) :   0.9762 

-------
TIMINGS
-------

Total SCF time: 0 days 0 hours 0 min 9 sec 

Total time                  ....       9.044 sec
Sum of individual times     ....       8.531 sec  ( 94.3%)

SCF preparation             ....       0.020 sec  (  0.2%)
Fock matrix formation       ....       8.422 sec  ( 93.1%)
  Startup                   ....       0.001 sec  (  0.0% of F)
  Split-RI-J                ....       2.373 sec  ( 28.2% of F)
  XC integration            ....       6.528 sec  ( 77.5% of F)
    Basis function eval.    ....       2.062 sec  ( 31.6% of XC)
    Density eval.           ....       1.131 sec  ( 17.3% of XC)
    XC-Functional eval.     ....       0.150 sec  (  2.3% of XC)
    XC-Potential eval.      ....       3.057 sec  ( 46.8% of XC)
Diagonalization             ....       0.000 sec  (  0.0%)
Density matrix formation    ....       0.008 sec  (  0.1%)
Total Energy calculation    ....       0.008 sec  (  0.1%)
Population analysis         ....       0.004 sec  (  0.0%)
Orbital Transformation      ....       0.009 sec  (  0.1%)
Orbital Orthonormalization  ....       0.000 sec  (  0.0%)
DIIS solution               ....       0.039 sec  (  0.4%)
SOSCF solution              ....       0.021 sec  (  0.2%)
Finished LeanSCF after   9.0 sec

Maximum memory used throughout the entire LEANSCF-calculation: 26.8 MB

------------------------------------------------------------------------------
                         ORCA PROPERTY INTEGRAL CALCULATIONS
------------------------------------------------------------------------------

GBWName                                   ... job.gbw
Number of atoms                           ...     14
Number of basis functions                 ...    259
Max core memory                           ...  16384 MB

Dipole integrals                          ... YES
Quadrupole integrals                      ...  NO
Linear momentum integrals                 ...  NO
Angular momentum integrals                ...  NO
Higher moments length integrals           ...  NO
Higher moments velocity integrals         ...  NO
Kinetic energy integrals                  ...  NO
GIAO right hand sides                     ...  NO
GIAO dipole derivative integrals          ...  NO
SOC integrals                             ...  NO
EPR diamagnetic integrals (GIAO)          ...  NO
EPR gauge integrals                       ...  NO
Field gradient integrals                  ...  NO (   0 nuclei)
Spin-dipole/Fermi contact integrals       ...  NO (   0 nuclei)
Contact density integrals                 ...  NO (   0 nuclei)
Nucleus-orbit integrals                   ...  NO (   0 nuclei)
Geometric perturbations                   ...  NO (  14 nuclei)

Choice of electric origin   ... Center of mass
Position of electric origin ... ( -3.4926,  1.0115,  0.0589) 
Choice of magnetic origin   ... GIAO
Position of magnetic origin ... (  0.0000,  0.0000,  0.0000) 

Calculating integrals                     ... Electric Dipole (Length)     done (  0.0 sec)

Property integrals calculated in   0.0 sec

Maximum memory used throughout the entire PROPINT-calculation: 22.1 MB

-------------------------   --------------------
FINAL SINGLE POINT ENERGY      -287.629395744979
-------------------------   --------------------

------------------------------------------------------------------------------
                         ORCA SCF GRADIENT CALCULATION
------------------------------------------------------------------------------

Nuc. rep. gradient        (SHARK) ... done (  0.0 sec)
HCore & Overlap gradient  (SHARK) ... done (  0.1 sec)
Split-RIJ-J gradient      (SHARK) ... done (  0.8 sec)
XC gradient                       ... done (  2.7 sec)

------------------
CARTESIAN GRADIENT
------------------

   1   C   :    0.000061031    0.004969078    0.000216179
   2   C   :    0.008482319   -0.008814825   -0.004693036
   3   H   :   -0.003612967   -0.001095399    0.000205622
   4   H   :   -0.000120727   -0.003713147   -0.000257333
   5   C   :   -0.000346837   -0.008840052    0.000215755
   6   C   :    0.000675947    0.006751392    0.014134394
   7   H   :   -0.000002714    0.003005021   -0.001083307
   8   H   :    0.000117519    0.003001144   -0.001036084
   9   C   :    0.000302753    0.005093049    0.000235364
  10   N   :    0.000054186    0.001729083   -0.002433211
  11   H   :    0.003731948    0.003529011   -0.000751301
  12   C   :   -0.009388763   -0.008080520   -0.004188540
  13   H   :    0.003549427   -0.001316625   -0.000020476
  14   H   :   -0.003503122    0.003782791   -0.000544026

Difference to translation invariance:
           :    0.0000000000   -0.0000000000    0.0000000000

Difference to rotation invariance:
           :    0.0000012084   -0.0000074047    0.0003237766

Norm of the Cartesian gradient     ...    0.0290371239
RMS gradient                       ...    0.0044805255
MAX gradient                       ...    0.0141343940

-------
TIMINGS
-------

Total SCF gradient time     ....        3.588 sec

Densities                   ....       0.000 sec  (  0.0%)
One electron gradient       ....       0.111 sec  (  3.1%)
RI-J Coulomb gradient       ....       0.813 sec  ( 22.7%)
XC gradient                 ....       2.664 sec  ( 74.3%)

Maximum memory used throughout the entire SCFGRAD-calculation: 35.5 MB
------------------------------------------------------------------------------
                         ORCA GEOMETRY RELAXATION STEP
------------------------------------------------------------------------------

Reading the OPT-File                    .... done
Getting information on internals        .... done
Copying old internal coords+grads       .... done
Making the new internal coordinates     .... (2022 redundants) done
Validating the new internal coordinates .... (2022 redundants) done
Calculating the B-matrix                .... done
Calculating the G,G- and P matrices     .... done
Transforming gradient to internals      .... done
Projecting the internal gradient        .... done
Number of atoms                         ....  14
Number of internal coordinates          ....  63
Current Energy                          ....  -287.629395745 Eh
Current gradient norm                   ....     0.029037124 Eh/bohr
Maximum allowed component of the step   ....  0.300
Current trust radius                    ....  0.300
Evaluating the initial hessian          ....  (Almloef) done
Projecting the Hessian                  .... done
Forming the augmented Hessian           .... done
Diagonalizing the augmented Hessian     .... done
Last element of RFO vector              ....  0.974155041
Lowest eigenvalues of augmented Hessian:
 -0.002729554  0.023018286  0.025522442  0.025529769  0.025695043
Length of the computed step             ....  0.231873155
The final length of the internal step   ....  0.231873155
Converting the step to Cartesian space:
 Initial RMS(Int)=    0.0292132717
Transforming coordinates:
 Iter   0:  RMS(Cart)=    0.0250972758 RMS(Int)=    1.1180377722
done
Storing new coordinates                 .... done

                                .--------------------.
          ----------------------|Geometry convergence|-------------------------
          Item                value                   Tolerance       Converged
          ---------------------------------------------------------------------
          RMS gradient        0.0033380531            0.0001000000      NO
          MAX gradient        0.0121127202            0.0003000000      NO
          RMS step            0.0292132717            0.0020000000      NO
          MAX step            0.0695030671            0.0040000000      NO
          -------------------------------------------------------------------------
          ........................................................
          Max(Bonds)      0.0104      Max(Angles)    0.56
          Max(Dihed)        3.98      Max(Improp)    0.00
          ---------------------------------------------------------------------

The optimization has not yet converged - more geometry cycles are needed


    ---------------------------------------------------------------------------
                         Redundant Internal Coordinates
                            (Angstroem and degrees)

        Definition                    Value    dE/dq     Step     New-Value
    ----------------------------------------------------------------------------
     1. B(C   1,C   0)                1.3974 -0.002446  0.0021    1.3995   
     2. B(C   4,C   0)                1.3928 -0.008341  0.0072    1.4000   
     3. B(C   4,H   3)                1.0866 -0.003712  0.0053    1.0919   
     4. B(C   5,C   1)                1.3974 -0.012113  0.0104    1.4078   
     5. B(C   8,C   4)                1.3928 -0.008385  0.0073    1.4000   
     6. B(C   8,H   2)                1.0866 -0.003712  0.0053    1.0919   
     7. B(N   9,C   5)                1.4007 -0.007313  0.0072    1.4079   
     8. B(N   9,H   7)                1.0151 -0.001691  0.0021    1.0171   
     9. B(N   9,H   6)                1.0150 -0.001748  0.0022    1.0172   
    10. B(H  10,C   1)                1.0865 -0.004922  0.0071    1.0936   
    11. B(C  11,C   8)                1.3975 -0.002451  0.0021    1.3996   
    12. B(C  11,C   5)                1.3973 -0.012098  0.0104    1.4077   
    13. B(H  12,C   0)                1.0866 -0.003711  0.0053    1.0919   
    14. B(H  13,C  11)                1.0865 -0.004915  0.0071    1.0936   
    15. A(C   4,C   0,H  12)          120.06  0.000437   -0.04    120.02   
    16. A(C   1,C   0,C   4)          120.01 -0.002461    0.35    120.36   
    17. A(C   1,C   0,H  12)          119.92  0.002019   -0.30    119.62   
    18. A(C   0,C   1,H  10)          119.04 -0.001743    0.29    119.33   
    19. A(C   0,C   1,C   5)          120.74  0.000497   -0.10    120.63   
    20. A(C   5,C   1,H  10)          120.22  0.001247   -0.19    120.03   
    21. A(H   3,C   4,C   8)          120.12 -0.001149    0.16    120.28   
    22. A(C   0,C   4,H   3)          120.14 -0.001087    0.15    120.29   
    23. A(C   0,C   4,C   8)          119.72  0.002222   -0.28    119.44   
    24. A(C   1,C   5,N   9)          120.23 -0.001091    0.54    120.78   
    25. A(C   1,C   5,C  11)          118.58  0.001541    0.11    118.69   
    26. A(N   9,C   5,C  11)          120.25 -0.001045    0.54    120.79   
    27. A(H   2,C   8,C  11)          119.90  0.001979   -0.29    119.61   
    28. A(H   2,C   8,C   4)          120.09  0.000517   -0.06    120.03   
    29. A(C   4,C   8,C  11)          120.01 -0.002501    0.36    120.36   
    30. A(H   6,N   9,H   7)          112.23  0.003195   -0.56    111.67   
    31. A(C   5,N   9,H   7)          113.51 -0.002594    0.45    113.96   
    32. A(C   5,N   9,H   6)          113.53 -0.002528    0.44    113.96   
    33. A(C   8,C  11,H  13)          119.06 -0.001746    0.29    119.35   
    34. A(C   5,C  11,H  13)          120.21  0.001201   -0.18    120.02   
    35. A(C   5,C  11,C   8)          120.74  0.000545   -0.11    120.63   
    36. D(C   5,C   1,C   0,C   4)      2.10  0.000771   -1.59      0.51   
    37. D(H  10,C   1,C   0,C   4)   -177.92  0.000714   -1.45   -179.37   
    38. D(C   5,C   1,C   0,H  12)   -178.87  0.000420   -0.89   -179.76   
    39. D(H  10,C   1,C   0,H  12)      1.12  0.000363   -0.76      0.36   
    40. D(H   3,C   4,C   0,H  12)      0.53  0.000046   -0.11      0.42   
    41. D(C   8,C   4,C   0,C   1)      0.92  0.000421   -0.84      0.08   
    42. D(C   8,C   4,C   0,H  12)   -178.11  0.000757   -1.53   -179.64   
    43. D(H   3,C   4,C   0,C   1)    179.56 -0.000290    0.59    180.15   
    44. D(C  11,C   5,C   1,H  10)    174.98 -0.001966    3.82    178.80   
    45. D(C  11,C   5,C   1,C   0)     -5.04 -0.002024    3.96     -1.08   
    46. D(N   9,C   5,C   1,H  10)      6.00  0.001626   -3.16      2.84   
    47. D(N   9,C   5,C   1,C   0)   -174.02  0.001568   -3.02   -177.04   
    48. D(C  11,C   8,C   4,C   0)     -0.90 -0.000410    0.81     -0.09   
    49. D(H   2,C   8,C   4,H   3)     -0.51 -0.000044    0.10     -0.41   
    50. D(H   2,C   8,C   4,C   0)    178.14 -0.000754    1.52    179.66   
    51. D(C  11,C   8,C   4,H   3)   -179.54  0.000300   -0.61   -180.15   
    52. D(H   7,N   9,C   5,C  11)    160.30  0.001583   -3.49    156.81   
    53. D(H   7,N   9,C   5,C   1)    -30.91 -0.001784    3.56    -27.35   
    54. D(H   6,N   9,C   5,C  11)     30.55  0.001761   -3.51     27.04   
    55. D(H   6,N   9,C   5,C   1)   -160.66 -0.001606    3.54   -157.12   
    56. D(H  13,C  11,C   8,C   4)    177.91 -0.000725    1.48    179.39   
    57. D(C   5,C  11,C   8,C   4)     -2.14 -0.000795    1.64     -0.50   
    58. D(C   5,C  11,C   8,H   2)    178.82 -0.000438    0.93    179.75   
    59. D(H  13,C  11,C   5,N   9)     -6.02 -0.001631    3.16     -2.86   
    60. D(H  13,C  11,C   5,C   1)   -174.99  0.001967   -3.82   -178.81   
    61. D(H  13,C  11,C   8,H   2)     -1.12 -0.000368    0.77     -0.36   
    62. D(C   8,C  11,C   5,N   9)    174.03 -0.001559    3.00    177.03   
    63. D(C   8,C  11,C   5,C   1)      5.06  0.002039   -3.98      1.08   
    ----------------------------------------------------------------------------

Geometry step timings:
Preparation and reading OPT file:      0.000 s ( 1.213 %)
Internal coordinates            :      0.000 s ( 1.569 %)
B/P matrices and projection     :      0.000 s (19.258 %)
Hessian update/contruction      :      0.001 s (39.943 %)
Making the step                 :      0.000 s (14.337 %)
Converting the step to Cartesian:      0.000 s ( 1.783 %)
Storing new data                :      0.000 s ( 2.782 %)
Checking convergence            :      0.000 s ( 1.997 %)
Final printing                  :      0.000 s (17.118 %)
Total time                      :      0.001 s

Time for energy+gradient        :     13.570 s
Time for complete geometry iter :     13.607 s

         *************************************************************
         *                GEOMETRY OPTIMIZATION CYCLE   2            *
         *************************************************************
---------------------------------
CARTESIAN COORDINATES (ANGSTROEM)
---------------------------------
  C     -3.013464    1.747757    0.055706
  C     -3.066033    0.349207    0.053553
  H      0.368780    2.165429   -0.047258
  H     -1.740155    3.500555    0.026372
  C     -1.780164    2.409352    0.022225
  C     -1.882794   -0.413320    0.028663
  H     -1.099160   -2.280307    0.311904
  H     -2.780403   -2.218958    0.365818
  C     -0.598432    1.659702   -0.015259
  N     -1.936085   -1.818688   -0.036060
  H     -4.038744   -0.150295    0.069501
  C     -0.647862    0.260985   -0.017393
  H     -3.941431    2.322750    0.079168
  H      0.285108   -0.308168   -0.057096

----------------------------
CARTESIAN COORDINATES (A.U.)
----------------------------
  NO LB      ZA    FRAG     MASS         X           Y           Z
   0 C     6.0000    0    12.011   -5.694623    3.302782    0.105268
   1 C     6.0000    0    12.011   -5.793963    0.659907    0.101200
   2 H     1.0000    0     1.008    0.696893    4.092067   -0.089305
   3 H     1.0000    0     1.008   -3.288416    6.615090    0.049837
   4 C     6.0000    0    12.011   -3.364022    4.553015    0.041999
   5 C     6.0000    0    12.011   -3.557965   -0.781061    0.054165
   6 H     1.0000    0     1.008   -2.077112   -4.309156    0.589413
   7 H     1.0000    0     1.008   -5.254200   -4.193223    0.691296
   8 C     6.0000    0    12.011   -1.130872    3.136382   -0.028836
   9 N     7.0000    0    14.007   -3.658671   -3.436823   -0.068143
  10 H     1.0000    0     1.008   -7.632119   -0.284015    0.131338
  11 C     6.0000    0    12.011   -1.224282    0.493190   -0.032868
  12 H     1.0000    0     1.008   -7.448226    4.389361    0.149605
  13 H     1.0000    0     1.008    0.538777   -0.582352   -0.107895

--------------------------------
INTERNAL COORDINATES (ANGSTROEM)
--------------------------------
 C      0   0   0     0.000000000000     0.00000000     0.00000000
 C      1   0   0     1.399538630800     0.00000000     0.00000000
 H      1   2   0     3.409490973290    99.18546232     0.00000000
 H      1   2   3     2.166674644182   146.14623937   359.75671985
 C      4   1   2     1.091944332691    33.91020908     0.22950377
 C      2   1   3     1.407878594172   120.64322055     0.64211283
 H      6   2   1     2.044492237993   144.51566795   165.21973475
 H      7   6   2     1.683225015871    65.68933430     7.45609078
 C      3   1   2     1.091916781827    20.55481917   359.46279804
 N      8   7   6     1.017149701052    34.16572491    31.45913445
 H      2   1   3     1.093582494262   119.32887681   180.75927201
 C      9   3   1     1.399591719348   119.61075011   179.39526368
 H      1   2   3     1.091919989628   119.62545403   179.59895774
 H     12   9   3     1.093592755214   119.34337443   359.64352423

---------------------------
INTERNAL COORDINATES (A.U.)
---------------------------
 C      0   0   0     0.000000000000     0.00000000     0.00000000
 C      1   0   0     2.644744726055     0.00000000     0.00000000
 H      1   2   0     6.443004195595    99.18546232     0.00000000
 H      1   2   3     4.094421698815   146.14623937   359.75671985
 C      4   1   2     2.063475742273    33.91020908     0.22950377
 C      2   1   3     2.660504972795   120.64322055     0.64211283
 H      6   2   1     3.863530412734   144.51566795   165.21973475
 H      7   6   2     3.180834301762    65.68933430     7.45609078
 C      3   1   2     2.063423678685    20.55481917   359.46279804
 N      8   7   6     1.922134372188    34.16572491    31.45913445
 H      2   1   3     2.066571419006   119.32887681   180.75927201
 C      9   3   1     2.644845048872   119.61075011   179.39526368
 H      1   2   3     2.063429740551   119.62545403   179.59895774
 H     12   9   3     2.066590809395   119.34337443   359.64352423

------------------------------------------------------------------------------
                   ___                                                        
                  /   \      - P O W E R E D   B Y -                         
                 /     \                                                     
                 |  |  |   _    _      __       _____    __    __             
                 |  |  |  | |  | |    /  \     |  _  \  |  |  /  |          
                  \  \/   | |  | |   /    \    | | | |  |  | /  /          
                 / \  \   | |__| |  /  /\  \   | |_| |  |  |/  /          
                |  |  |   |  __  | /  /__\  \  |    /   |      \           
                |  |  |   | |  | | |   __   |  |    \   |  |\   \          
                \     /   | |  | | |  |  |  |  | |\  \  |  | \   \       
                 \___/    |_|  |_| |__|  |__|  |_| \__\ |__|  \__/        
                                                                              
                      - O R C A' S   B I G   F R I E N D -                    
                                      &                                       
                       - I N T E G R A L  F E E D E R -                       
                                                                              
 v1 FN, 2020, v2 2021, v3 2022-2024                                           
------------------------------------------------------------------------------


----------------------
SHARK INTEGRAL PACKAGE
----------------------

Number of atoms                             ...     14
Number of basis functions                   ...    259
Number of shells                            ...    105
Maximum angular momentum                    ...      3
Integral batch strategy                     ... SHARK/LIBINT Hybrid
RI-J (if used) integral strategy            ... SPLIT-RIJ (Revised 2003 algorithm where possible)
Printlevel                                  ...      1
Contraction scheme used                     ... SEGMENTED contraction
Prescreening option                         ... SCHWARTZ
   Thresh                                   ... 2.500e-11
   Tcut                                     ... 2.500e-12
   Tpresel                                  ... 2.500e-12 
Coulomb Range Separation                    ... NOT USED
Exchange Range Separation                   ... NOT USED
Multipole approximations                    ... NOT USED
Finite Nucleus Model                        ... NOT USED
CABS basis                                  ... NOT available
Auxiliary Coulomb fitting basis             ... AVAILABLE
   # of basis functions in Aux-J            ...    420
   # of shells in Aux-J                     ...    140
   Maximum angular momentum in Aux-J        ...      4
Auxiliary J/K fitting basis                 ... NOT available
Auxiliary Correlation fitting basis         ... NOT available
Auxiliary 'external' fitting basis          ... NOT available

Checking pre-screening integrals            ... done (  0.0 sec) Dimension = 105
   => SHARK Basis and OBASIS are compatible. Storing Pre-screening
Shell pair information
Shell pair cut-off parameter TPreSel        ...   2.5e-12
Total number of shell pairs                 ...      5565
Shell pairs after pre-screening             ...      5239
Total number of primitive shell pairs       ...     16828
Primitive shell pairs kept                  ...     12263
          la=0 lb=0:   1433 shell pairs
          la=1 lb=0:   1481 shell pairs
          la=1 lb=1:    392 shell pairs
          la=2 lb=0:    754 shell pairs
          la=2 lb=1:    383 shell pairs
          la=2 lb=2:    104 shell pairs
          la=3 lb=0:    373 shell pairs
          la=3 lb=1:    193 shell pairs
          la=3 lb=2:     98 shell pairs
          la=3 lb=3:     28 shell pairs

Checking whether 4 symmetric matrices of dimension 259 fit in memory
:Max Core in MB      =  16384.00
 MB in use           =      9.12
 MB left             =  16374.88
 MB needed           =      1.03
 Data fit in memory  = YES
Calculating RI/J V-Matrix + Cholesky decomp.... done (  0.0 sec)
Calculating Nuclear repulsion               ... done (  0.0 sec) ENN=    270.016539871758 Eh

Diagonalization of the overlap matrix:
Smallest eigenvalue                        ... 1.046e-05
Time for diagonalization                   ...    0.004 sec
Threshold for overlap eigenvalues          ... 1.000e-07
Number of eigenvalues below threshold      ... 0
[...]
     20      -0.040021  -0.020539  -0.054727  -0.134270  -0.237048  -0.000370
     21      -0.035639   0.010665  -0.048217  -0.275708  -0.391381  -0.002303
     22       0.204916  -0.098278   0.248079   0.430636   0.526688   0.004084
     23       0.042561  -0.021582   0.056997  -0.116752  -0.212493  -0.000264
     24       0.032239   0.102006  -0.198680   0.041566  -0.014435  -0.028003
     25       0.140949  -0.129327   0.094232  -0.188828   0.051831  -0.013119
     26      -0.001336  -0.002507   0.005469  -0.001161   0.000016   0.000802
     27       0.050778  -0.001601   0.056857  -0.001297  -0.002978   0.000005
     28      -0.001933  -0.046846  -0.002333  -0.040726  -0.097520   0.000234
     29      -0.001515   0.005621  -0.001658   0.007637   0.020837  -0.000056
     30       0.225178  -0.136123   0.018231   0.167040  -0.047703   0.528066
     31      -0.209145   0.410777   0.259964  -0.215711   0.047313   0.271618
     32      -0.003801  -0.000511  -0.002272  -0.002129   0.003083  -0.014206
     33       0.023945  -0.097110   0.197417   0.061538  -0.017248   0.040931
     34      -0.128735  -0.057995   0.073480   0.201196  -0.059689  -0.023860
     35      -0.000238   0.003694  -0.006080  -0.003181  -0.000645  -0.001272
     36       0.259304   0.215648  -0.009606   0.156815  -0.043352  -0.333258
     37       0.210363   0.428051   0.260795   0.152099  -0.048195   0.202601
     38      -0.008683  -0.007388  -0.000929  -0.004214   0.003492   0.010021
     39       0.240413   0.164802  -0.001235  -0.182097   0.051016  -0.476703
     40       0.193942   0.399440  -0.261403  -0.202536   0.043922   0.290826
     41      -0.009920  -0.009446   0.001839   0.008185   0.000106   0.015204
                 36         37         38         39         40         41    
      0      -0.020731  -0.033112   0.047098   0.029956   0.000079  -0.000097
      1       0.011515   0.022327  -0.030341  -0.016028  -0.000197  -0.000158
      2       0.000625   0.000986  -0.001402  -0.000900  -0.000230  -0.000004
      3       0.047223  -0.030308   0.023094   0.008490  -0.000278   0.000546
      4       0.024408  -0.016035   0.014064   0.006081   0.000620   0.000118
      5      -0.001292   0.000843  -0.000639  -0.000243  -0.000046  -0.000144
      6       0.276995  -0.410183  -0.564933   0.327149   0.000537  -0.000011
      7       0.141749  -0.214632  -0.294258   0.165946  -0.000019  -0.000294
      8      -0.007945   0.011852   0.016308  -0.009423   0.000198   0.000014
      9      -0.000043   0.018594   0.004714   0.030326  -0.000009   0.000084
     10      -0.005869   0.512217  -0.001356   0.834972  -0.000944  -0.000004
     11       0.000014  -0.001585  -0.000138  -0.002473   0.000855  -0.000000
     12       0.000095  -0.001543  -0.003489  -0.002697   0.000009   0.000128
     13       0.000459  -0.042411   0.000225  -0.074233   0.000241  -0.000004
     14      -0.000004   0.000128   0.000101   0.000230  -0.000011  -0.000004
     15      -0.001954  -0.000110  -0.002173   0.000032   0.000095  -0.001570
     16      -0.000012  -0.002929   0.000080   0.000907   0.000954   0.000063
     17       0.000058   0.000027   0.000063  -0.000022   0.001858   0.000049
     18       0.000048   0.000812  -0.000234  -0.000541  -0.592320   0.575426
     19       0.002237   0.003271   0.000503  -0.000526   0.323714  -0.330694
     20      -0.000954  -0.000972  -0.000574  -0.000161  -0.209849   0.234171
     21      -0.000112  -0.000662  -0.000210   0.000497   0.599005   0.584074
     22      -0.002025   0.003303  -0.000477  -0.000561   0.279643   0.289282
     23       0.000932  -0.000914   0.000584  -0.000196  -0.245568  -0.270099
     24      -0.023226   0.034655   0.049051  -0.030983  -0.000106  -0.000085
     25      -0.010794   0.019877   0.026774  -0.013779  -0.000190   0.000164
     26       0.000666  -0.001008  -0.001426   0.000894  -0.000225   0.000008
     27       0.000168   0.000018   0.000318  -0.000003  -0.000582  -0.082968
     28      -0.000004   0.000356  -0.000013  -0.000101  -0.044962   0.002959
     29      -0.000005   0.000093  -0.000009   0.000049   0.031319   0.002569
     30      -0.552618   0.342854  -0.263345  -0.096163   0.000458  -0.000203
     31      -0.286232   0.177810  -0.139022  -0.052200  -0.000910  -0.001844
     32       0.014819  -0.009237   0.007076   0.002615   0.001812   0.000735
     33       0.047480   0.029298   0.022074  -0.008033   0.000311   0.000549
     34      -0.029044  -0.018352  -0.015747   0.006685   0.000604  -0.000161
     35      -0.001490  -0.000908  -0.000687   0.000242  -0.000063   0.000111
     36       0.246380   0.393443  -0.543543  -0.314887  -0.000525   0.000007
     37      -0.149587  -0.243811   0.335422   0.189661   0.000019   0.000294
     38      -0.007445  -0.011799   0.016317   0.009475   0.000232  -0.000013
     39      -0.555506  -0.331765  -0.253295   0.092205  -0.000369  -0.000156
     40       0.341100   0.204005   0.158294  -0.059120  -0.000930   0.001892
     41       0.017768   0.010572   0.008089  -0.002916   0.001840  -0.000718


-----------
IR SPECTRUM
-----------

 Mode   freq       eps      Int      T**2         TX        TY        TZ
       cm**-1   L/(mol*cm) km/mol    a.u.
----------------------------------------------------------------------------
  6:    210.99   0.000937    4.74  0.001386  ( 0.001567  0.019518  0.031664)
  7:    301.69   0.003830   19.36  0.003962  ( 0.062860 -0.002471 -0.002106)
  8:    370.91   0.000009    0.04  0.000007  (-0.002708 -0.000150 -0.000156)
  9:    397.78   0.000035    0.18  0.000027  ( 0.005213 -0.000331 -0.000391)
 10:    486.06   0.010432   52.72  0.006698  (-0.003637 -0.041086 -0.070686)
 11:    517.49   0.001086    5.49  0.000655  (-0.001186 -0.023343 -0.010427)
 12:    593.95   0.053262  269.16  0.027984  (-0.007826 -0.147641 -0.078263)
 13:    612.27   0.000064    0.32  0.000033  ( 0.005708 -0.000132 -0.000172)
 14:    672.76   0.004573   23.11  0.002121  ( 0.001099 -0.005962  0.045656)
 15:    727.73   0.012611   63.73  0.005408  (-0.002815 -0.020411 -0.070593)
 16:    786.77   0.000019    0.10  0.000008  ( 0.002735 -0.000123 -0.000122)
 17:    807.89   0.000323    1.63  0.000125  (-0.000050 -0.008079  0.007716)
 18:    836.08   0.001775    8.97  0.000662  ( 0.001003  0.008236  0.024364)
 19:    886.55   0.000000    0.00  0.000000  ( 0.000029 -0.000041 -0.000094)
 20:    901.06   0.000004    0.02  0.000001  ( 0.000047  0.000973  0.000542)
 21:    979.86   0.000217    1.10  0.000069  (-0.000183 -0.007666  0.003219)
 22:   1020.07   0.000664    3.36  0.000203  ( 0.000572  0.014243  0.000012)
 23:   1037.42   0.000712    3.60  0.000214  ( 0.014623 -0.000528 -0.000392)
 24:   1106.78   0.000603    3.05  0.000170  (-0.013022  0.000593  0.000408)
 25:   1146.12   0.000252    1.27  0.000069  (-0.008273  0.000300  0.000242)
 26:   1166.25   0.001661    8.39  0.000444  ( 0.000712  0.021049 -0.000923)
 27:   1267.49   0.010486   52.99  0.002582  (-0.001798 -0.050761  0.001325)
 28:   1321.98   0.000010    0.05  0.000002  ( 0.001547 -0.000018 -0.000050)
 29:   1340.57   0.001320    6.67  0.000307  (-0.017507  0.000641  0.000502)
 30:   1454.59   0.000254    1.28  0.000054  ( 0.007371 -0.000212 -0.000220)
 31:   1483.95   0.010929   55.23  0.002298  ( 0.001757  0.047908  0.000265)
 32:   1573.32   0.000793    4.01  0.000157  (-0.012527  0.000472  0.000341)
 33:   1595.14   0.006369   32.18  0.001246  (-0.001474 -0.034371 -0.007896)
 34:   1611.92   0.021656  109.44  0.004193  ( 0.001737  0.062163 -0.018035)
 35:   3081.06   0.003723   18.81  0.000377  (-0.000988 -0.019392  0.000132)
 36:   3082.29   0.000833    4.21  0.000084  ( 0.009141 -0.000837 -0.000259)
 37:   3098.46   0.000712    3.60  0.000072  (-0.000234 -0.008463  0.000071)
 38:   3103.41   0.007683   38.83  0.000773  ( 0.027765 -0.001008 -0.000799)
 39:   3122.44   0.002859   14.45  0.000286  (-0.000559 -0.016893  0.000096)
 40:   3464.15   0.001738    8.78  0.000157  ( 0.000284  0.011611 -0.004653)
 41:   3559.75   0.001821    9.20  0.000160  ( 0.012623 -0.000444 -0.000387)

* The epsilon (eps) is given for a Dirac delta lineshape.
** The dipole moment derivative (T) already includes vibrational overlap.

The first frequency considered to be a vibration is 6
The total number of vibrations considered is 36


--------------------------
THERMOCHEMISTRY AT 298.15K
--------------------------

Temperature         ...   298.15 K
Pressure            ...     1.00 atm
Total Mass          ...    93.13 AMU
Quasi RRHO          ...     True
Cut-Off Frequency   ...     1.00 cm^-1

Throughout the following assumptions are being made:
  (1) The electronic state is orbitally nondegenerate
  (2) There are no thermally accessible electronically excited states
  (3) Hindered rotations indicated by low frequency modes are not
      treated as such but are treated as vibrations and this may
      cause some error
  (4) All equations used are the standard statistical mechanics
      equations for an ideal gas
  (5) All vibrations are strictly harmonic

freq.     210.99  E(vib)   ...       0.34 
freq.     301.69  E(vib)   ...       0.26 
freq.     370.91  E(vib)   ...       0.21 
freq.     397.78  E(vib)   ...       0.20 
freq.     486.06  E(vib)   ...       0.15 
freq.     517.49  E(vib)   ...       0.13 
freq.     593.95  E(vib)   ...       0.10 
freq.     612.27  E(vib)   ...       0.10 
freq.     672.76  E(vib)   ...       0.08 
freq.     727.73  E(vib)   ...       0.06 
freq.     786.77  E(vib)   ...       0.05 
freq.     807.89  E(vib)   ...       0.05 
freq.     836.08  E(vib)   ...       0.04 
freq.     886.55  E(vib)   ...       0.04 
freq.     901.06  E(vib)   ...       0.03 
freq.     979.86  E(vib)   ...       0.02 
freq.    1020.07  E(vib)   ...       0.02 
freq.    1037.42  E(vib)   ...       0.02 
freq.    1106.78  E(vib)   ...       0.02 
freq.    1146.12  E(vib)   ...       0.01 
freq.    1166.25  E(vib)   ...       0.01 
freq.    1267.49  E(vib)   ...       0.01 
freq.    1321.98  E(vib)   ...       0.01 
freq.    1340.57  E(vib)   ...       0.01 
freq.    1454.59  E(vib)   ...       0.00 
freq.    1483.95  E(vib)   ...       0.00 
freq.    1573.32  E(vib)   ...       0.00 
freq.    1595.14  E(vib)   ...       0.00 
freq.    1611.92  E(vib)   ...       0.00 
freq.    3081.06  E(vib)   ...       0.00 
freq.    3082.29  E(vib)   ...       0.00 
freq.    3098.46  E(vib)   ...       0.00 
freq.    3103.41  E(vib)   ...       0.00 
freq.    3122.44  E(vib)   ...       0.00 
freq.    3464.15  E(vib)   ...       0.00 
freq.    3559.75  E(vib)   ...       0.00 

------------
INNER ENERGY
------------

The inner energy is: U= E(el) + E(ZPE) + E(vib) + E(rot) + E(trans)
    E(el)   - is the total energy from the electronic structure calculation
              = E(kin-el) + E(nuc-el) + E(el-el) + E(nuc-nuc)
    E(ZPE)  - the the zero temperature vibrational energy from the frequency calculation
    E(vib)  - the the finite temperature correction to E(ZPE) due to population
              of excited vibrational states
    E(rot)  - is the rotational thermal energy
    E(trans)- is the translational thermal energy

Summary of contributions to the inner energy U:
Electronic energy                ...   -287.63104509 Eh
Zero point energy                ...      0.11328643 Eh      71.09 kcal/mol
Thermal vibrational correction   ...      0.00316244 Eh       1.98 kcal/mol
Thermal rotational correction    ...      0.00141627 Eh       0.89 kcal/mol
Thermal translational correction ...      0.00141627 Eh       0.89 kcal/mol
-----------------------------------------------------------------------
Total thermal energy                   -287.51176367 Eh


Summary of corrections to the electronic energy:
(perhaps to be used in another calculation)
Total thermal correction                  0.00599499 Eh       3.76 kcal/mol
Non-thermal (ZPE) correction              0.11328643 Eh      71.09 kcal/mol
-----------------------------------------------------------------------
Total correction                          0.11928142 Eh      74.85 kcal/mol


--------
ENTHALPY
--------

The enthalpy is H = U + kB*T
                kB is Boltzmann's constant
Total thermal energy              ...   -287.51176367 Eh 
Thermal Enthalpy correction       ...      0.00094421 Eh       0.59 kcal/mol
-----------------------------------------------------------------------
Total Enthalpy                    ...   -287.51081946 Eh


Note: Only C1 symmetry has been detected, increase convergence thresholds 
      if your molecule has a higher symmetry. Symmetry factor of 1.0 is   
      used for the rotational entropy correction. 
 

Note: Rotational entropy computed according to Herzberg 
Infrared and Raman Spectra, Chapter V,1, Van Nostrand Reinhold, 1945 
Point Group:  C1, Symmetry Number:   1  
Rotational constants in cm-1:     0.185646     0.085520     0.058646 

Vibrational entropy computed according to the QRRHO of S. Grimme
Chem.Eur.J. 2012 18 9955 using a reference frequency of 100.0 cm-1


-------
ENTROPY
-------

The entropy contributions are T*S = T*(S(el)+S(vib)+S(rot)+S(trans))
     S(el)   - electronic entropy
     S(vib)  - vibrational entropy
     S(rot)  - rotational entropy
     S(trans)- translational entropy
The entropies will be listed as multiplied by the temperature to get
units of energy

Electronic entropy                ...      0.00000000 Eh      0.00 kcal/mol
Vibrational entropy               ...      0.00463906 Eh      2.91 kcal/mol
Rotational entropy                ...      0.01280560 Eh      8.04 kcal/mol
Translational entropy             ...      0.01877043 Eh     11.78 kcal/mol
-----------------------------------------------------------------------
Final entropy term                ...      0.03621509 Eh     22.73 kcal/mol

In case the symmetry of your molecule has not been determined correctly
or in case you have a reason to use a different symmetry number we print 
out the resulting rotational entropy values for sn=1,12:

 non-linear molecules -----------------------------------
|  sn= 1 | S(rot)=       0.01280560 Eh      8.04 kcal/mol|
|  sn= 2 | S(rot)=       0.01215115 Eh      7.62 kcal/mol|
|  sn= 3 | S(rot)=       0.01176831 Eh      7.38 kcal/mol|
|  sn= 4 | S(rot)=       0.01149669 Eh      7.21 kcal/mol|
|  sn= 5 | S(rot)=       0.01128600 Eh      7.08 kcal/mol|
|  sn= 6 | S(rot)=       0.01111386 Eh      6.97 kcal/mol|
|  sn= 7 | S(rot)=       0.01096831 Eh      6.88 kcal/mol|
|  sn= 8 | S(rot)=       0.01084223 Eh      6.80 kcal/mol|
|  sn= 9 | S(rot)=       0.01073102 Eh      6.73 kcal/mol|
|  sn=10 | S(rot)=       0.01063155 Eh      6.67 kcal/mol|
|  sn=11 | S(rot)=       0.01054155 Eh      6.61 kcal/mol|
|  sn=12 | S(rot)=       0.01045940 Eh      6.56 kcal/mol|
 linear molecules ---------------------------------------
|  Dinfh | S(rot)=       0.00800372 Eh      5.02 kcal/mol|
|  Cinfv | S(rot)=       0.00865818 Eh      5.43 kcal/mol|
 --------------------------------------------------------


-------------------
GIBBS FREE ENERGY
-------------------

The Gibbs free energy is G = H - T*S

Total enthalpy                    ...   -287.51081946 Eh 
Total entropy correction          ...     -0.03621509 Eh    -22.73 kcal/mol
-----------------------------------------------------------------------
Final Gibbs free energy         ...   -287.54703455 Eh

For completeness - the Gibbs free energy minus the electronic energy
G-E(el)                           ...      0.08401054 Eh     52.72 kcal/mol


Maximum memory used throughout the entire PROP-calculation: 54.3 MB

--------------------------------
SUGGESTED CITATIONS FOR THIS RUN
--------------------------------

Below you find a list of papers that are relevant to this ORCA run
We neither can nor want to force you to cite these papers, but we appreciate if you do
You receive ORCA, which is the product of decades of hard work by many enthusiastic individuals, for free
The only thing we kindly ask in return is that you cite our papers,
We deeply appreciate it, if you show your appreciation for ORCA by not just citing the generic ORCA reference.

Please note that relegating all ORCA citations to the supporting information does *not* help us.
SI sections are not indexed - citations you put there will not count into any citation statistics
But we need these citations in order to attract the funding resources that allow us to do what we are doing

Therefore, if you are a happy ORCA user, please consider citing a few of the papers listed below in the main body of your paper

In addition to the list printed below, the program has created the file job.bibtex that contains the list in bibtex format
You can import this file easily into all common literature databanks and citation aid programs


List of essential papers. We consider these as the minimum necessary citations

  1. Neese, F.
     Software update: the ORCA program system, version 6.0
     WIRES Comput. Molec. Sci. 2025 15(1), e70019
     doi.org/10.1002/wcms.7019

List of papers to cite with high priority. The work reported in these papers was absolutely
necessary for this run to complete.
Our perspective: the developers of density functionals and basis sets usually get cited in chemistry papers
Good! But without the algorithms to do something with them, the functionals or basis sets would not do anything.
Hence, in our opinion, the algorithm design and method developments papers are equally worthy of getting cited

  1. Neese, F.
     An improvement of the resolution of the identity approximation for the formation of the Coulomb matrix
     J. Comp. Chem. 2003 24(14), 1740-1747
     doi.org/10.1002/jcc.10318
  2. Bykov, D.; Petrenko, T.; Izsak, R.; Kossmann, S.; Becker, U.; Valeev, E.; Neese, F.
     Efficient implementation of the analytic second derivatives of Hartree-Fock and hybrid DFT energies: a detailed analysis of different approximations
     Molec. Phys. 2015 113 , 1961-1977
     doi.org/10.1080/00268976.2015.1025114
  3. Neese, F.
     The SHARK Integral Generation and Digestion System
     J. Comp. Chem. 2022 44(3), 381
     doi.org/10.1002/jcc.26942

List of suggested additional citations. These are papers that are important in the 'surrounding' of 
of this run, or papers that preceded the highly important papers. If you like your results we are grateful for a citation.

  1. Neese, F.
     The ORCA program system
     WIRES Comput. Molec. Sci. 2012 2(1), 73-78
     doi.org/10.1002/wcms.81
  2. Neese, F.
     Software update: the ORCA program system, version 4.0
     WIRES Comput. Molec. Sci. 2018 8(1), 1-6
     doi.org/10.1002/wcms.1327
  3. Neese, F.; Wennmohs, F.; Becker, U.; Riplinger, C.
     The ORCA quantum chemistry program package
     J. Chem. Phys. 2020 152(22), 224108
     doi.org/10.1063/5.0004608
  4. Neese, F.
     Software update: The ORCA program system—Version 5.0
     WIRES Comput. Molec. Sci. 2022 12(1), e1606
     doi.org/10.1002/wcms.1606

List of optional additional citations

  1. Neese, F.
     Approximate second-order SCF convergence for spin unrestricted wavefunctions
     Chem. Phys. Lett. 2000 325(1-3), 93-98
     doi.org/10.1016/s0009-2614(00)00662-x

Timings for individual modules:

Sum of individual times          ...      220.098 sec (=   3.668 min)
Startup calculation              ...        2.356 sec (=   0.039 min)   1.1 %
SCF iterations                   ...       37.700 sec (=   0.628 min)  17.1 %
Property integrals               ...       89.237 sec (=   1.487 min)  40.5 %
SCF Response                     ...       32.309 sec (=   0.538 min)  14.7 %
Property calculations            ...       40.223 sec (=   0.670 min)  18.3 %
SCF Gradient evaluation          ...       18.262 sec (=   0.304 min)   8.3 %
Geometry relaxation              ...        0.010 sec (=   0.000 min)   0.0 %
                             ****ORCA TERMINATED NORMALLY****
TOTAL RUN TIME: 0 days 0 hours 3 minutes 40 seconds 393 msec
