
                                 *****************
                                 * O   R   C   A *
                                 *****************

                                            #,                                       
                                            ###                                      
                                            ####                                     
                                            #####                                    
                                            ######                                   
                                           ########,                                 
                                     ,,################,,,,,                         
                               ,,#################################,,                 
                          ,,##########################################,,             
                       ,#########################################, ''#####,          
                    ,#############################################,,   '####,        
                  ,##################################################,,,,####,       
                ,###########''''           ''''###############################       
              ,#####''   ,,,,##########,,,,          '''####'''          '####       
            ,##' ,,,,###########################,,,                        '##       
           ' ,,###''''                  '''############,,,                           
         ,,##''                                '''############,,,,        ,,,,,,###''
      ,#''                                            '''#######################'''  
     '                                                          ''''####''''         
             ,#######,   #######,   ,#######,      ##                                
            ,#'     '#,  ##    ##  ,#'     '#,    #''#        ,####,    ,#,          
            ##       ##  ##   ,#'  ##            #'  '#       #'       ,# #          
            ##       ##  #######   ##           ,######,      #####,      #          
            '#,     ,#'  ##    ##  '#,     ,#' ,#      #,     #,   #      #          
             '#######'   ##     ##  '#######'  #'      '#     '####' #    #          



                #########################################################
                #                        -***-                          #
                #          Department of theory and spectroscopy        #
                #                                                       #
                #                      Frank Neese                      #
                #                                                       #
                #     Directorship, Architecture, Infrastructure        #
                #                    SHARK, DRIVERS                     #
                #        Core code/Algorithms in most modules           #
                #                                                       #
                #        Max Planck Institute fuer Kohlenforschung      #
                #                Kaiser Wilhelm Platz 1                 #
                #                 D-45470 Muelheim/Ruhr                 #
                #                      Germany                          #
                #                                                       #
                #                  All rights reserved                  #
                #                        -***-                          #
                #########################################################


                         Program Version 6.1.0  -  RELEASE   -
                                (GIT: $679e74b7b5$)
                          ($2025-06-10 18:02:51 +0200$)


 With contributions from (in alphabetic order):
[Max-Planck-Institut fuer Kohlenforschung]                               
  Daniel Aravena         : Magnetic Suceptibility                        
  Michael Atanasov       : Ab Initio Ligand Field Theory (pilot matlab implementation)
  Alexander A. Auer      : GIAO ZORA, VPT2 properties, NMR spectrum      
  Ute Becker             : All parallelization in ORCA, NUMFREQ, NUMCALC 
  Giovanni Bistoni       : ED, misc. LED, open-shell LED, HFLD           
  Dmytro Bykov           : pre 5.0 version of the SCF Hessian            
  Marcos Casanova-Páez   : Triplet and SCS-CIS(D). UHF-(DLPNO)-IP/EA/STEOM-CCSD. UHF-CVS-IP/STEOM-CCSD   
  Vijay G. Chilkuri      : MRCI spin determinant printing, contributions to CSF-ICE 
  Pauline Colinet        : FMM embedding                                 
  Dipayan Datta          : RHF DLPNO-CCSD density                        
  Achintya Kumar Dutta   : EOM-CC, STEOM-CC                              
  Nicolas Foglia         : Exact transition moments, OPA infrastructure, MCD improvements    
  Dmitry Ganyushin       : Spin-Orbit,Spin-Spin,Magnetic field MRCI      
  Miquel Garcia-Rates    : C-PCM and meta-GGA Hessian, CCSD/C-PCM, Gaussian charge scheme 
  Tiago L. C. Gouveia    : GS-ROHF, GS-ROCIS                             
  Yang Guo               : DLPNO-NEVPT2, F12-NEVPT2, CIM, IAO-localization        
  Andreas Hansen         : Spin unrestricted coupled pair/coupled cluster methods 
  Ingolf Harden          : AUTO-CI MPn and infrastructure                
  Benjamin Helmich-Paris : MC-RPA, TRAH-(SCF,CASSCF), AVAS, COSX integrals, SCF dyn. polar., MC-PDFT, srDFT 
  Lee Huntington         : MR-EOM, pCC                                   
  Robert Izsak           : Overlap fitted RIJCOSX, COSX-SCS-MP3, EOM     
  Riya Kayal             : Wick's Theorem for AUTO-CI, AUTO-CI UHF-CCSDT 
  Emily Kempfer          : AUTO-CI RHF CISDT and CCSDT, approximate NEVPT4
  Christian Kollmar      : KDIIS, OOCD, Brueckner-CCSD(T), CCSD density, CASPT2, CASPT2-K, improved NEVPT2 
  Axel Koslowski         : Symmetry handling                             
  Simone Kossmann        : meta-GGA functionals, TD-DFT gradient, OOMP2, (MP2 Hessian; deprecated post 5.0) 
  Lucas Lang             : DCDCAS, Hyperfine gauge corrections, ICE-SOC+SSC
  Marvin Lechner         : AUTO-CI (C++ implementation), FIC-MRCC        
  Spencer Leger          : CASSCF response                               
  Dagmar Lenk            : GEPOL surface, SMD, ORCA-2-JSON               
  Dimitrios Liakos       : Extrapolation schemes; Compound Job, Property file
  Dimitrios Manganas     : Further ROCIS development; embedding schemes. LFT, Crystal Embedding 
  Dimitrios Pantazis     : SARC Basis sets                               
  Anastasios Papadopoulos: AUTO-CI, single reference methods and gradients 
  Taras Petrenko         : pre 6.0 DFT Hessian and TD-DFT gradient,  ECA, NRVS 
  Petra Pikulova         : Analytic Raman intensities                    
  Peter Pinski           : DLPNO-MP2, DLPNO-MP2 Gradient                 
  Shashank Vittal Rao    : ES-AILFT, MagRelax                            
  Christoph Reimann      : Effective Core Potentials                     
  Marius Retegan         : Local ZFS, SOC                                
  Christoph Riplinger    : Optimizer, TS searches, QM/MM, DLPNO-CCSD(T), (RO)-DLPNO pert. Triples 
  Michael Roemelt        : Original ROCIS implementation, recursive CI coupling coefficients
  Masaaki Saitow         : Open-shell DLPNO-CCSD energy and density      
  Barbara Sandhoefer     : DKH picture change effects                    
  Yorick L. A. Schmerwitz: GMF and freeze-and-release deltaSCF, NEB S-IDPP initial path                    
  Kantharuban Sivalingam : CASSCF convergence/infrastructure, NEVPT2, NEVPT3, NEVPT4(SD), FIC-MRCI and CEPA variants
  Bernardo de Souza      : ESD, SOC TD-DFT                               
  Georgi L. Stoychev     : AutoAux, RI-MP2 NMR, DLPNO-MP2 response, X2C  
  Van Anh Tran           : RI-MP2 g-tensors                              
  Willem Van den Heuvel  : Paramagnetic NMR                              
  Zikuan Wang            : NOTCH, Electric field optimization            
  Frank Wennmohs         : Technical directorship and infrastructure     
  Hang Xu                : AUTO-CI-Response properties                   
                                                                         
[FACCTs GmbH]                                                            
  Markus Bursch, Nicolas Foglia, Miquel Garcia-Rates, Ingolf Harden, Hagen Neugebauer, Anastasios Papadopoulos, 
  Christoph Riplinger, Bernardo de Souza, Georgi L. Stoychev                                                    
                                                                 
  APM, various basis sets, CI-OPT, improved COSX, DLPNO-Multilevel,           
  DOCKER, DRACO, updates on ESD, Fragmentator, GOAT, IRC, LR-CPCM, L-BFGS, MBIS, meta-GGA TD-DFT gradient, ML-optimized integration grids, 
  MM, NACMEs, nearIR, NEB, NEB-TS, NL-DFT gradient (VV10), 2- and 3-layer-ONIOM, interface openCOSMO-RS, QMMM,   
  Crystal-QMMM, RESP, rigid body optimization, SF, symmetry and pop. for TD-DFT, various functionals, SOLVATOR                                   
                                                                         
[Other institutions]                                                     
  V. Asgeirsson          : NEB                                           
  Christoph Bannwarth    : sTDA-DFT, sTD-DFT, PBEh-3c, B97-3c, D3        
  Giovanni Bistoni       : ETS/NOCV, ADLD/ADEX, COVALED                  
  Martin Brehm           : Molecular dynamics                            
  Ronald Cardenas        : ETS/NOCV                                      
  Martina Colucci        : COVALED                                       
  Sebastian Ehlert       : rSCAN, r2SCAN, r2SCAN-3c, D4, dhf basis sets  
  Marvin Friede          : D4 for Fr, Ra, Ac-Lr                          
  Lars Goerigk           : TD-DFT with DH, B97 family of functionals     
  Stefan Grimme          : VdW corrections, initial TS optimization, DFT functionals, gCP, sTDA/sTD-DF 
  Waldemar Hujo          : DFT-NL                                        
  H. Jonsson             : NEB                                           
  Holger Kruse           : gCP                                           
  Marcel Mueller         : wB97X-3c, vDZP basis set                      
  Hagen Neugebauer       : wr2SCAN, Native XTB                           
  Gianluca Regni         : ADLD/ADEX                                     
  Tobias Risthaus        : pre 6.0 range-separated hybrid DFT and stability analysis
  Lukas Wittmann         : regularized MP2, r2SCAN double-hybrids, wr2SCAN        
                                                                         
We gratefully acknowledge several colleagues who have allowed us to      
interface, adapt or use parts of their codes:                            
  Ed Valeev, F. Pavosevic, A. Kumar             : LibInt (2-el integral package), F12 methods 
  Garnet Chan, S. Sharma, J. Yang, R. Olivares  : DMRG                   
  Ulf Ekstrom                                   : XCFun DFT Library      
  Mihaly Kallay                                 : mrcc  (arbitrary order and MRCC methods)
  Frank Weinhold                                : gennbo (NPA and NBO analysis)           
  Simon Mueller                                 : openCOSMO-RS                            
  Christopher J. Cramer and Donald G. Truhlar   : smd solvation model                     
  S Lehtola, MJT Oliveira, MAL Marques          : LibXC Library                           
  Liviu Ungur et al                             : ANISO software                          


 Your calculation uses the libint2 library for the computation of 2-el integrals
 For citations please refer to: http://libint.valeyev.net

 Your ORCA version has been built with support for libXC version: 7.0.0
 For citations please refer to: https://libxc.gitlab.io

 This ORCA versions uses:
   CBLAS   interface :  Fast vector & matrix operations
   LAPACKE interface :  Fast linear algebra routines
   SCALAPACK package :  Parallel linear algebra routines
   Shared memory     :  Shared parallel matrices


  ***********************************
  * Starting time: Wed Jul  9 17:17:50 2025
  * Host name:     MacBook-Air-3.local
  * Process ID:    74318
  * Working dir.:  /Users/blenl/Desktop/Folders/Projects/DFT2/MethylBenzene/frequency
  ***********************************

NOTE: MaxCore=16384 MB was set to SCF,MP2,MDCI,CIPSI,MRCI,RASCI and CIS
      => If you want to overwrite this, your respective input block should be placed after the MaxCore statement
Warning: RI is on but no J-basis has been assigned. Assigning Def2/J (nothing to worry about!)
================================================================================

----- Orbital basis set information -----
Your calculation utilizes the basis: def2-TZVP
   F. Weigend and R. Ahlrichs, Phys. Chem. Chem. Phys. 7, 3297 (2005).

----- AuxJ basis set information -----
Your calculation utilizes the auxiliary basis: def2/J
   H-Rn: F. Weigend, Phys. Chem. Chem. Phys. 8, 1057 (2006).
   Fr-Lr: K. Eichkorn, F. Weigend, O. Treutler, R. Ahlrichs; Theor. Chem. Acc. 97, 119 (1997).

================================================================================
                                        WARNINGS
                       Please study these warnings very carefully!
================================================================================


WARNING: Geometry Optimization
  ===> : Switching off AutoStart
         For restart on a previous wavefunction, please use MOREAD

================================================================================
                                       INPUT FILE
================================================================================
NAME = job.inp
|  1> # avogadro generated ORCA file
|  2> # C7H14 | Frequencies | revPBE/def2-TZVP
|  3> # 
|  4> ! Opt Freq revPBE def2-TZVP 
|  5> 
|  6> %maxcore 16384
|  7> 
|  8> %pal
|  9>    nprocs 1
| 10> end
| 11> 
| 12> * xyz 0 1
| 13>    C     -3.150658    3.072574   -0.228097
| 14>    C     -3.263926    1.547273   -0.150035
| 15>    H     -3.479139    1.162614   -1.155751
| 16>    H     -0.741851    1.066066   -1.326226
| 17>    C     -1.852075    3.616550    0.353766
| 18>    C     -2.011561    0.864544    0.414066
| 19>    H     -3.230261    3.381006   -1.278060
| 20>    H     -4.002570    3.531226    0.287630
| 21>    C     -0.632541    2.919431   -0.240391
| 22>    H     -1.785685    4.695373    0.171853
| 23>    H     -1.855374    3.486002    1.443061
| 24>    C     -0.750815    1.393152   -0.278059
| 25>    H     -0.467272    3.285330   -1.261471
| 26>    H      0.258468    3.206434    0.330630
| 27>    C     -2.113546   -0.653653    0.277373
| 28>    H     -4.132233    1.279275    0.464881
| 29>    H      0.140895    0.950317    0.182865
| 30>    H     -1.942435    1.092350    1.486027
| 31>    H     -1.237930   -1.142491    0.716997
| 32>    H     -3.002248   -1.030999    0.793825
| 33>    H     -2.178154   -0.957188   -0.772849
| 34> *
| 35> 
| 36> 
| 37> 
| 38>                          ****END OF INPUT****
================================================================================

                       *****************************
                       * Geometry Optimization Run *
                       *****************************

Geometry optimization settings:
Update method            Update   .... BFGS
Choice of coordinates    CoordSys .... (2022) Redundant Internals
Initial Hessian          InHess   .... Almloef's Model
Max. no of cycles        MaxIter  .... 63

Convergence Tolerances:
Energy Change            TolE     ....  5.0000e-06 Eh
Max. Gradient            TolMAXG  ....  3.0000e-04 Eh/bohr
RMS Gradient             TolRMSG  ....  1.0000e-04 Eh/bohr
Max. Displacement        TolMAXD  ....  4.0000e-03 bohr
RMS Displacement         TolRMSD  ....  2.0000e-03 bohr
Strict Convergence                .... False

------------------------------------------------------------------------------
                        ORCA OPTIMIZATION COORDINATE SETUP
------------------------------------------------------------------------------

The optimization will be done in redundant internal coordinates (2022)
Making redundant internal coordinates   ...  (2022 redundants) done
Evaluating the initial hessian          ...  (Almloef) done
Evaluating the coordinates              ...  done
Calculating the B-matrix                .... done
Calculating the G-matrix                .... done
The number of degrees of freedom        ....  105

    -----------------------------------------------------------------
                    Redundant Internal Coordinates


    -----------------------------------------------------------------
         Definition                    Initial Value    Approx d2E/dq
    -----------------------------------------------------------------
      1. B(C   1,C   0)                  1.5315         0.371533   
      2. B(H   2,C   1)                  1.0981         0.349589   
      3. B(C   4,C   0)                  1.5234         0.382722   
      4. B(C   5,C   1)                  1.5339         0.368306   
      5. B(H   6,C   0)                  1.0972         0.350676   
      6. B(H   7,C   0)                  1.0964         0.351734   
      7. B(C   8,C   4)                  1.5252         0.380209   
      8. B(H   9,C   4)                  1.0961         0.352165   
      9. B(H  10,C   4)                  1.0971         0.350836   
     10. B(C  11,C   8)                  1.5313         0.371770   
     11. B(C  11,C   5)                  1.5323         0.370431   
     12. B(C  11,H   3)                  1.0981         0.349603   
     13. B(H  12,C   8)                  1.0972         0.350728   
     14. B(H  13,C   8)                  1.0965         0.351591   
     15. B(C  14,C   5)                  1.5277         0.376681   
     16. B(H  15,C   1)                  1.0972         0.350669   
     17. B(H  16,C  11)                  1.0971         0.350787   
     18. B(H  17,C   5)                  1.0981         0.349571   
     19. B(H  18,C  14)                  1.0950         0.353599   
     20. B(H  19,C  14)                  1.0949         0.353618   
     21. B(H  20,C  14)                  1.0951         0.353398   
     22. A(H   6,C   0,H   7)          106.0311         0.288567   
     23. A(C   1,C   0,C   4)          113.5288         0.364516   
     24. A(C   1,C   0,H   6)          108.8673         0.322621   
     25. A(C   4,C   0,H   6)          109.0846         0.324195   
     26. A(C   1,C   0,H   7)          109.5842         0.322780   
     27. A(C   4,C   0,H   7)          109.4692         0.324355   
     28. A(C   0,C   1,C   5)          113.6822         0.362132   
     29. A(H   2,C   1,C   5)          109.9339         0.321996   
     30. A(C   5,C   1,H  15)          109.3483         0.322159   
     31. A(H   2,C   1,H  15)          105.8209         0.288290   
     32. A(C   0,C   1,H   2)          108.4636         0.322457   
     33. A(C   0,C   1,H  15)          109.2905         0.322620   
     34. A(H   9,C   4,H  10)          106.3852         0.288643   
     35. A(C   8,C   4,H  10)          109.5607         0.323869   
     36. A(C   0,C   4,H  10)          109.5225         0.324219   
     37. A(C   8,C   4,H   9)          109.6813         0.324070   
     38. A(C   0,C   4,H   9)          109.8586         0.324421   
     39. A(C   0,C   4,C   8)          111.6898         0.365959   
     40. A(C   1,C   5,C  14)          110.7880         0.362984   
     41. A(C  11,C   5,C  14)          110.9364         0.363341   
     42. A(C  14,C   5,H  17)          107.3201         0.323182   
     43. A(C   1,C   5,H  17)          108.5466         0.321993   
     44. A(C   1,C   5,C  11)          110.6167         0.361948   
     45. A(C  11,C   5,H  17)          108.5168         0.322297   
     46. A(H  12,C   8,H  13)          105.9593         0.288555   
     47. A(C  11,C   8,H  13)          109.6609         0.322792   
     48. A(C   4,C   8,H  13)          109.1009         0.323983   
     49. A(C  11,C   8,H  12)          108.7316         0.322662   
     50. A(C   4,C   8,C  11)          113.7900         0.364145   
     51. A(C   4,C   8,H  12)          109.3024         0.323852   
     52. A(H   3,C  11,H  16)          105.9121         0.288307   
     53. A(C   5,C  11,C   8)          113.3458         0.362527   
     54. A(H   3,C  11,C   8)          108.6477         0.322492   
     55. A(H   3,C  11,C   5)          109.5802         0.322302   
     56. A(C   8,C  11,H  16)          109.2197         0.322671   
     57. A(C   5,C  11,H  16)          109.8598         0.322480   
     58. A(H  19,C  14,H  20)          107.9947         0.289158   
     59. A(H  18,C  14,H  20)          107.9674         0.289156   
     60. A(C   5,C  14,H  20)          111.4189         0.323760   
     61. A(H  18,C  14,H  19)          107.8076         0.289184   
     62. A(C   5,C  14,H  19)          110.7598         0.323793   
     63. A(C   5,C  14,H  18)          110.7535         0.323790   
     64. D(C   5,C   1,C   0,H   7)   -126.4806         0.011029   
     65. D(H   2,C   1,C   0,H   6)     -4.6444         0.011029   
     66. D(C   5,C   1,C   0,H   6)    117.9667         0.011029   
     67. D(C   5,C   1,C   0,C   4)     -3.7458         0.011029   
     68. D(H   2,C   1,C   0,H   7)    110.9083         0.011029   
     69. D(H   2,C   1,C   0,C   4)   -126.3569         0.011029   
     70. D(C   8,C   4,C   0,C   1)     52.0635         0.011666   
     71. D(H   9,C   4,C   0,H   7)    -63.1989         0.011666   
     72. D(H   9,C   4,C   0,H   6)     52.4117         0.011666   
     73. D(H   9,C   4,C   0,C   1)    174.0030         0.011666   
     74. D(C   8,C   4,C   0,H   6)    -69.5278         0.011666   
     75. D(C   8,C   4,C   0,H   7)    174.8617         0.011666   
     76. D(C  11,C   5,C   1,H   2)     73.3815         0.010850   
     77. D(C  11,C   5,C   1,C   0)    -48.4167         0.010850   
     78. D(C  11,C   5,C   1,H  15)   -170.8515         0.010850   
     79. D(C  14,C   5,C   1,H  15)     65.7002         0.010850   
     80. D(C  14,C   5,C   1,H   2)    -50.0668         0.010850   
     81. D(C  14,C   5,C   1,C   0)   -171.8650         0.010850   
     82. D(H  12,C   8,C   4,H  10)   -163.6811         0.011521   
     83. D(H  12,C   8,C   4,H   9)    -47.2556         0.011521   
     84. D(H  12,C   8,C   4,C   0)     74.7858         0.011521   
     85. D(C  11,C   8,C   4,H   9)   -169.0089         0.011521   
     86. D(C  11,C   8,C   4,C   0)    -46.9674         0.011521   
     87. D(C  11,C   8,C   4,H  10)     74.5656         0.011521   
     88. D(C   8,C  11,C   5,H  17)    -65.4658         0.010968   
     89. D(C   8,C  11,C   5,C  14)    176.8695         0.010968   
     90. D(C   8,C  11,C   5,C   1)     53.5069         0.010968   
     91. D(H   3,C  11,C   5,H  17)    172.9898         0.010968   
     92. D(H   3,C  11,C   5,C  14)     55.3252         0.010968   
     93. D(H   3,C  11,C   8,C   4)    116.4044         0.011042   
     94. D(H   3,C  11,C   5,C   1)    -68.0374         0.010968   
     95. D(C   5,C  11,C   8,H  13)    116.8366         0.011042   
     96. D(C   5,C  11,C   8,H  12)   -127.7302         0.011042   
     97. D(C   5,C  11,C   8,C   4)     -5.6610         0.011042   
     98. D(H   3,C  11,C   8,H  13)   -121.0980         0.011042   
     99. D(H   3,C  11,C   8,H  12)     -5.6648         0.011042   
    100. D(H  19,C  14,C   5,H  17)     60.2186         0.011319   
    101. D(H  19,C  14,C   5,C  11)    178.6101         0.011319   
    102. D(H  19,C  14,C   5,C   1)    -58.1258         0.011319   
    103. D(H  18,C  14,C   5,H  17)    -59.3451         0.011319   
    104. D(H  18,C  14,C   5,C  11)     59.0465         0.011319   
    105. D(H  18,C  14,C   5,C   1)   -177.6894         0.011319   
    -----------------------------------------------------------------

Number of atoms                         .... 21
Number of degrees of freedom            .... 105


         *************************************************************
         *                GEOMETRY OPTIMIZATION CYCLE   1            *
         *************************************************************
---------------------------------
CARTESIAN COORDINATES (ANGSTROEM)
---------------------------------
  C     -3.150658    3.072574   -0.228097
  C     -3.263926    1.547273   -0.150035
  H     -3.479139    1.162614   -1.155751
  H     -0.741851    1.066066   -1.326226
  C     -1.852075    3.616550    0.353766
  C     -2.011561    0.864544    0.414066
  H     -3.230261    3.381006   -1.278060
  H     -4.002570    3.531226    0.287630
  C     -0.632541    2.919431   -0.240391
  H     -1.785685    4.695373    0.171853
  H     -1.855374    3.486002    1.443061
  C     -0.750815    1.393152   -0.278059
  H     -0.467272    3.285330   -1.261471
  H      0.258468    3.206434    0.330630
  C     -2.113546   -0.653653    0.277373
  H     -4.132233    1.279275    0.464881
  H      0.140895    0.950317    0.182865
  H     -1.942435    1.092350    1.486027
  H     -1.237930   -1.142491    0.716997
  H     -3.002248   -1.030999    0.793825
  H     -2.178154   -0.957188   -0.772849

----------------------------
CARTESIAN COORDINATES (A.U.)
----------------------------
  NO LB      ZA    FRAG     MASS         X           Y           Z
   0 C     6.0000    0    12.011   -5.953881    5.806323   -0.431041
   1 C     6.0000    0    12.011   -6.167926    2.923922   -0.283525
   2 H     1.0000    0     1.008   -6.574620    2.197022   -2.184053
   3 H     1.0000    0     1.008   -1.401895    2.014573   -2.506204
   4 C     6.0000    0    12.011   -3.499915    6.834289    0.668521
   5 C     6.0000    0    12.011   -3.801299    1.633751    0.782471
   6 H     1.0000    0     1.008   -6.104309    6.389175   -2.415183
   7 H     1.0000    0     1.008   -7.563761    6.673050    0.543542
   8 C     6.0000    0    12.011   -1.195329    5.516925   -0.454273
   9 H     1.0000    0     1.008   -3.374456    8.872969    0.324755
  10 H     1.0000    0     1.008   -3.506149    6.587589    2.726990
  11 C     6.0000    0    12.011   -1.418835    2.632676   -0.525455
  12 H     1.0000    0     1.008   -0.883016    6.208374   -2.383835
  13 H     1.0000    0     1.008    0.488434    6.059282    0.624800
  14 C     6.0000    0    12.011   -3.994023   -1.235225    0.524159
  15 H     1.0000    0     1.008   -7.808789    2.417479    0.878498
  16 H     1.0000    0     1.008    0.266253    1.795839    0.345565
  17 H     1.0000    0     1.008   -3.670670    2.064242    2.808184
  18 H     1.0000    0     1.008   -2.339349   -2.158995    1.354928
  19 H     1.0000    0     1.008   -5.673427   -1.948306    1.500112
  20 H     1.0000    0     1.008   -4.116115   -1.808823   -1.460473

--------------------------------
INTERNAL COORDINATES (ANGSTROEM)
--------------------------------
 C      0   0   0     0.000000000000     0.00000000     0.00000000
 C      1   0   0     1.531491578909     0.00000000     0.00000000
 H      2   1   0     1.098063684085   108.46357014     0.00000000
 H      3   2   1     2.744290224607    82.74571023    89.88389342
 C      1   2   3     1.523414666870   113.52875015   233.64311578
 C      2   1   3     1.533866656156   113.68221100   122.61108916
 H      1   2   3     1.097218864950   108.86729893   355.35563301
 H      1   2   3     1.096398673557   109.58421108   110.90832845
 C      5   1   2     1.525208385096   111.68981894    52.06354119
 H      5   1   2     1.096065252162   109.85860447   174.00297174
 H      5   1   2     1.097094918742   109.52254474   290.50847573
 C      4   3   2     1.098052669311    85.53097090     3.73645153
 H      9   5   1     1.097178329608   109.30241635    74.78582771
 H      9   5   1     1.096509344480   109.10085092   190.22753849
 C      6   2   1     1.527746067671   110.78804791   188.13499279
 H      2   1   3     1.097224526389   109.29051573   245.07777483
 H     12   4   3     1.097132852074   105.91214537   148.80774586
 H      6   2   1     1.098077576054   108.54656016    70.53804122
 H     15   6   2     1.094959008856   110.75345287   182.31056304
 H     15   6   2     1.094944709483   110.75979123   301.87419271
 H     15   6   2     1.095113664956   111.41890073    62.11179266

---------------------------
INTERNAL COORDINATES (A.U.)
---------------------------
 C      0   0   0     0.000000000000     0.00000000     0.00000000
 C      1   0   0     2.894099660545     0.00000000     0.00000000
 H      2   1   0     2.075039640525   108.46357014     0.00000000
 H      3   2   1     5.185956956504    82.74571023    89.88389342
 C      1   2   3     2.878836508783   113.52875015   233.64311578
 C      2   1   3     2.898587906088   113.68221100   122.61108916
 H      1   2   3     2.073443163727   108.86729893   355.35563301
 H      1   2   3     2.071893226617   109.58421108   110.90832845
 C      5   1   2     2.882226144991   111.68981894    52.06354119
 H      5   1   2     2.071263151494   109.85860447   174.00297174
 H      5   1   2     2.073208939339   109.52254474   290.50847573
 C      4   3   2     2.075018825619    85.53097090     3.73645153
 H      9   5   1     2.073366563033   109.30241635    74.78582771
 H      9   5   1     2.072102364352   109.10085092   190.22753849
 C      6   2   1     2.887021670073   110.78804791   188.13499279
 H      2   1   3     2.073453862296   109.29051573   245.07777483
 H     12   4   3     2.073280622949   105.91214537   148.80774586
 H      6   2   1     2.075065892542   108.54656016    70.53804122
 H     15   6   2     2.069172654609   110.75345287   182.31056304
 H     15   6   2     2.069145632708   110.75979123   301.87419271
 H     15   6   2     2.069464912281   111.41890073    62.11179266

---------------------
BASIS SET INFORMATION
---------------------
There are 2 groups of distinct atoms

 Group   1 Type C   : 11s6p2d1f contracted to 5s3p2d1f pattern {62111/411/11/1}
 Group   2 Type H   : 5s1p contracted to 3s1p pattern {311/1}

Atom   0C    basis set group =>   1
Atom   1C    basis set group =>   1
Atom   2H    basis set group =>   2
Atom   3H    basis set group =>   2
Atom   4C    basis set group =>   1
Atom   5C    basis set group =>   1
Atom   6H    basis set group =>   2
Atom   7H    basis set group =>   2
Atom   8C    basis set group =>   1
Atom   9H    basis set group =>   2
Atom  10H    basis set group =>   2
Atom  11C    basis set group =>   1
Atom  12H    basis set group =>   2
Atom  13H    basis set group =>   2
Atom  14C    basis set group =>   1
Atom  15H    basis set group =>   2
Atom  16H    basis set group =>   2
Atom  17H    basis set group =>   2
Atom  18H    basis set group =>   2
Atom  19H    basis set group =>   2
Atom  20H    basis set group =>   2
---------------------------------
AUXILIARY/J BASIS SET INFORMATION
---------------------------------
There are 2 groups of distinct atoms

 Group   1 Type C   : 12s5p4d2f1g contracted to 6s4p3d1f1g pattern {711111/2111/211/2/1}
 Group   2 Type H   : 5s2p1d contracted to 3s1p1d pattern {311/2/1}

Atom   0C    basis set group =>   1
Atom   1C    basis set group =>   1
Atom   2H    basis set group =>   2
Atom   3H    basis set group =>   2
Atom   4C    basis set group =>   1
Atom   5C    basis set group =>   1
Atom   6H    basis set group =>   2
Atom   7H    basis set group =>   2
Atom   8C    basis set group =>   1
Atom   9H    basis set group =>   2
Atom  10H    basis set group =>   2
Atom  11C    basis set group =>   1
Atom  12H    basis set group =>   2
Atom  13H    basis set group =>   2
Atom  14C    basis set group =>   1
Atom  15H    basis set group =>   2
Atom  16H    basis set group =>   2
Atom  17H    basis set group =>   2
Atom  18H    basis set group =>   2
Atom  19H    basis set group =>   2
Atom  20H    basis set group =>   2
------------------------------------------------------------------------------
                             ORCA STARTUP CALCULATIONS
                           -- RI-GTO INTEGRALS CHOSEN --
------------------------------------------------------------------------------
------------------------------------------------------------------------------
                   ___                                                        
                  /   \      - P O W E R E D   B Y -                         
                 /     \                                                     
                 |  |  |   _    _      __       _____    __    __             
                 |  |  |  | |  | |    /  \     |  _  \  |  |  /  |          
                  \  \/   | |  | |   /    \    | | | |  |  | /  /          
                 / \  \   | |__| |  /  /\  \   | |_| |  |  |/  /          
                |  |  |   |  __  | /  /__\  \  |    /   |      \           
                |  |  |   | |  | | |   __   |  |    \   |  |\   \          
                \     /   | |  | | |  |  |  |  | |\  \  |  | \   \       
                 \___/    |_|  |_| |__|  |__|  |_| \__\ |__|  \__/        
                                                                              
                      - O R C A' S   B I G   F R I E N D -                    
                                      &                                       
                       - I N T E G R A L  F E E D E R -                       
                                                                              
 v1 FN, 2020, v2 2021, v3 2022-2024                                           
------------------------------------------------------------------------------


----------------------
SHARK INTEGRAL PACKAGE
----------------------

Number of atoms                             ...     21
Number of basis functions                   ...    301
Number of shells                            ...    133
Maximum angular momentum                    ...      3
Integral batch strategy                     ... SHARK/LIBINT Hybrid
RI-J (if used) integral strategy            ... SPLIT-RIJ (Revised 2003 algorithm where possible)
Printlevel                                  ...      1
Contraction scheme used                     ... SEGMENTED contraction
Prescreening option                         ... SCHWARTZ
   Thresh                                   ... 2.500e-11
   Tcut                                     ... 2.500e-12
   Tpresel                                  ... 2.500e-12 
Coulomb Range Separation                    ... NOT USED
Exchange Range Separation                   ... NOT USED
Multipole approximations                    ... NOT USED
Finite Nucleus Model                        ... NOT USED
CABS basis                                  ... NOT available
Auxiliary Coulomb fitting basis             ... AVAILABLE
   # of basis functions in Aux-J            ...    497
   # of shells in Aux-J                     ...    175
   Maximum angular momentum in Aux-J        ...      4
Auxiliary J/K fitting basis                 ... NOT available
Auxiliary Correlation fitting basis         ... NOT available
Auxiliary 'external' fitting basis          ... NOT available

Checking pre-screening integrals            ... done (  0.0 sec) Dimension = 133
   => SHARK Basis and OBASIS are compatible. Storing Pre-screening
Shell pair information
Shell pair cut-off parameter TPreSel        ...   2.5e-12
Total number of shell pairs                 ...      8911
Shell pairs after pre-screening             ...      8422
Total number of primitive shell pairs       ...     25396
Primitive shell pairs kept                  ...     18644
          la=0 lb=0:   2757 shell pairs
          la=1 lb=0:   2545 shell pairs
          la=1 lb=1:    606 shell pairs
          la=2 lb=0:   1043 shell pairs
          la=2 lb=1:    480 shell pairs
          la=2 lb=2:    104 shell pairs
          la=3 lb=0:    517 shell pairs
          la=3 lb=1:    244 shell pairs
          la=3 lb=2:     98 shell pairs
          la=3 lb=3:     28 shell pairs

Checking whether 4 symmetric matrices of dimension 301 fit in memory
:Max Core in MB      =  16384.00
 MB in use           =     11.50
 MB left             =  16372.50
 MB needed           =      1.39
 Data fit in memory  = YES
Calculating RI/J V-Matrix + Cholesky decomp.... done (  0.0 sec)
Calculating Nuclear repulsion               ... done (  0.0 sec) ENN=    328.960641152238 Eh

Diagonalization of the overlap matrix:
Smallest eigenvalue                        ... 3.890e-05
Time for diagonalization                   ...    0.005 sec
Threshold for overlap eigenvalues          ... 1.000e-07
Number of eigenvalues below threshold      ... 0
Time for construction of square roots      ...    0.001 sec
Total time needed                          ...    0.006 sec

-------------------
DFT GRID GENERATION
-------------------

General Integration Accuracy     IntAcc      ... 4.388
Radial Grid Type                 RadialGrid  ... OptM3 with GC (2021)
Angular Grid (max. ang.)         AngularGrid ... 4 (Lebedev-302)
Angular grid pruning method      GridPruning ... 4 (adaptive)
Weight generation scheme         WeightScheme... mBecke (2022)
Basis function cutoff            BFCut       ... 1.0000e-11
Integration weight cutoff        WCut        ... 1.0000e-14
Partially contracted basis set               ... off
Rotationally invariant grid construction     ... off
Angular grids for H and He will be reduced by one unit

Total number of grid points                  ...    86357
Total number of batches                      ...     1358
Average number of points per batch           ...       63
Average number of grid points per atom       ...     4112
Grids setup in   0.4 sec
Initializing property integral containers    ... done (  0.0 sec)

SHARK setup successfully completed in   0.5 seconds

Maximum memory used throughout the entire STARTUP-calculation: 46.4 MB
-------------------------------------------------------------------------------
                                 ORCA GUESS
                   Start orbitals & Density for SCF / CASSCF
-------------------------------------------------------------------------------

------------
SCF SETTINGS
------------
Hamiltonian:
 Density Functional     Method          .... DFT(GTOs)
 Exchange Functional    Exchange        .... PBE
   PBE kappa parameter   XKappa         ....  1.245000
   PBE mue parameter    XMuePBE         ....  0.219520
 Correlation Functional Correlation     .... PBE
   PBE beta parameter  CBetaPBE         ....  0.066725
 LDA part of GGA corr.  LDAOpt          .... PW91-LDA
 Gradients option       PostSCFGGA      .... off
   NL short-range parameter             ....  3.700000
 RI-approximation to the Coulomb term is turned on
   Number of AuxJ basis functions       .... 497


General Settings:
 Integral files         IntName         .... job
 Hartree-Fock type      HFTyp           .... RHF
 Total Charge           Charge          ....    0
 Multiplicity           Mult            ....    1
 Number of Electrons    NEL             ....   56
 Basis Dimension        Dim             ....  301
 Nuclear Repulsion      ENuc            ....    328.9606411522 Eh

Convergence Acceleration:
 AO-DIIS                CNVDIIS         .... on
   Start iteration      DIISMaxIt       ....    12
   Startup error        DIISStart       ....  0.200000
   # of expansion vecs  DIISMaxEq       ....     5
   Bias factor          DIISBfac        ....   1.050
   Max. coefficient     DIISMaxC        ....  10.000
 MO-DIIS                CNVKDIIS        .... off
 Trust-Rad. Augm. Hess. CNVTRAH         .... auto
   Auto Start mean grad. ratio tolernc. ....  1.125000
   Auto Start start iteration           ....    50
   Auto Start num. interpolation iter.  ....    10
   Max. Number of Micro iterations      ....    24
   Max. Number of Macro iterations      .... Maxiter - #DIIS iter
   Number of Davidson start vectors     ....     2
   Converg. threshold    (grad. norm)   ....   1.000e-05
   Grad. Scal. Fac. for Micro threshold ....   0.100
   Minimum threshold for Micro iter.    ....   1.000e-02
   NR start threshold (gradient norm)   ....   1.000e-04
   Initial trust radius                 ....   0.400
   Minimum AH scaling param. (alpha)    ....   1.000
   Maximum AH scaling param. (alpha)    .... 1000.000
   Quad. conv. algorithm                .... NR
   White noise on init. David. guess    .... on
   Maximum white noise                  ....   0.010
   Pseudo random numbers                .... off
   Inactive MOs                         .... canonical
   Orbital update algorithm             .... Taylor
   Preconditioner                       .... Diag
   Full preconditioner red. dimension   ....   250
 SOSCF                 CNVSOSCF           .... on
   Start iteration     SOSCFMaxIt         ....   150
   Startup grad/error  SOSCFStart         ....  0.003300
   Hessian update      SOSCFHessUp        .... L-BFGS
   Autom. constraints  SOSCFAutoConstrain .... off
 Level Shifting         CNVShift        .... on
   Level shift para.    LevelShift      ....    0.2500
   Turn off err/grad.   ShiftErr        ....    0.0010
 Zerner damping         CNVZerner       .... off
 Static damping         CNVDamp         .... on
   Fraction old density DampFac         ....    0.7000
   Max. Damping (<1)    DampMax         ....    0.9800
   Min. Damping (>=0)   DampMin         ....    0.0000
   Turn off err/grad.   DampErr         ....    0.1000

SCF Procedure:
 Maximum # iterations   MaxIter         ....   125
 SCF integral mode      SCFMode         .... Direct
   Integral package                     .... SHARK and LIBINT hybrid scheme
 Reset frequency        DirectResetFreq ....    20
 Integral Threshold     Thresh          ....  2.500e-11 Eh
 Primitive CutOff       TCut            ....  2.500e-12 Eh

Convergence Tolerance:
 Convergence Check Mode ConvCheckMode   .... Total+1el-Energy
 Convergence forced     ConvForced      .... 0
 Energy Change          TolE            ....  1.000e-08 Eh
 1-El. energy change                    ....  1.000e-05 Eh
 Orbital Gradient       TolG            ....  1.000e-05
 Orbital Rotation angle TolX            ....  1.000e-05
 DIIS Error             TolErr          ....  5.000e-07

------------------------------
INITIAL GUESS: MODEL POTENTIAL
------------------------------
Loading Hartree-Fock densities                     ... done
Calculating cut-offs                               ... done
Initializing the effective Hamiltonian             ... done
Setting up the integral package (SHARK)            ... done
Starting the Coulomb interaction                   ... done (   0.2 sec)
Making the grid                                    ... done (   0.1 sec)
Mapping shells                                     ... done
Starting the XC term evaluation                    ... done (   0.2 sec)
  promolecular density results
     # of electrons  =     55.995701788
     EX              =    -40.242408510
     EC              =     -1.835707850
     EX+EC           =    -42.078116360
Transforming the Hamiltonian                       ... done (   0.0 sec)
Diagonalizing the Hamiltonian                      ... done (   0.0 sec)
Back transforming the eigenvectors                 ... done (   0.0 sec)
Now organizing SCF variables                       ... done
                      ------------------
                      INITIAL GUESS DONE (   0.5 sec)
                      ------------------
             **** ENERGY FILE WAS UPDATED (job.en.tmp) ****
Finished Guess after   0.5 sec
Maximum memory used throughout the entire GUESS-calculation: 26.2 MB

-------------------------------------------------------------------------------------------
                                      ORCA LEAN-SCF
                              memory conserving SCF solver
-------------------------------------------------------------------------------------------

----------------------------------------D-I-I-S--------------------------------------------
Iteration    Energy (Eh)           Delta-E    RMSDP     MaxDP     DIISErr   Damp  Time(sec)
-------------------------------------------------------------------------------------------
               ***  Starting incremental Fock matrix formation  ***
    1    -274.9540045692448302     0.00e+00  1.45e-03  3.19e-02  1.73e-01  0.700   1.1
    2    -275.0673594896047689    -1.13e-01  1.18e-03  2.18e-02  8.29e-02  0.700   1.1
                               ***Turning on AO-DIIS***
    3    -275.1047362421471689    -3.74e-02  5.59e-04  1.24e-02  2.28e-02  0.700   1.1
    4    -275.1269834006396877    -2.22e-02  8.46e-04  1.65e-02  1.02e-02  0.000   1.0
    5    -275.1789154650526825    -5.19e-02  3.07e-04  9.28e-03  9.60e-03  0.000   1.0
                              *** Initializing SOSCF ***
---------------------------------------S-O-S-C-F--------------------------------------
Iteration    Energy (Eh)           Delta-E    RMSDP     MaxDP     MaxGrad    Time(sec)
--------------------------------------------------------------------------------------
    6    -275.1797502768388313    -8.35e-04  1.47e-04  4.49e-03  2.97e-03     1.0
               *** Restarting incremental Fock matrix formation ***
    7    -275.1798182933224552    -6.80e-05  1.27e-04  3.57e-03  3.82e-04     1.2
    8    -275.1798180490518462     2.44e-07  1.59e-05  3.09e-04  3.38e-04     1.0
    9    -275.1798240643315694    -6.02e-06  2.33e-05  6.22e-04  8.08e-05     0.9
   10    -275.1798242829348737    -2.19e-07  6.30e-06  1.48e-04  4.89e-05     0.9
   11    -275.1798244863215359    -2.03e-07  2.77e-06  7.91e-05  1.03e-05     0.9
   12    -275.1798244798557107     6.47e-09  1.13e-06  2.70e-05  1.03e-05     0.8
                 **** Energy Check signals convergence ****

               *****************************************************
               *                     SUCCESS                       *
               *           SCF CONVERGED AFTER  12 CYCLES          *
               *****************************************************

             **** ENERGY FILE WAS UPDATED (job.en.tmp) ****

----------------
TOTAL SCF ENERGY
----------------

Total Energy       :       -275.17982449384795 Eh           -7488.02371 eV

Components:
Nuclear Repulsion  :        328.96064115223840 Eh            8951.47413 eV
Electronic Energy  :       -604.14046564608634 Eh          -16439.49784 eV
One Electron Energy:      -1021.04434714354591 Eh          -27784.02920 eV
Two Electron Energy:        416.90388149745957 Eh           11344.53136 eV

Virial components:
Potential Energy   :       -549.19203229630364 Eh          -14944.27495 eV
Kinetic Energy     :        274.01220780245569 Eh            7456.25124 eV
Virial Ratio       :          2.00426118493317

DFT components:
N(Alpha)           :       27.999995117453 electrons
N(Beta)            :       27.999995117453 electrons
N(Total)           :       55.999990234906 electrons
E(X)               :      -41.440616903163 Eh       
E(C)               :       -1.828074695914 Eh       
E(XC)              :      -43.268691599078 Eh       

---------------
SCF CONVERGENCE
---------------

  Last Energy change         ...   -6.4658e-09  Tolerance :   1.0000e-08
  Last MAX-Density change    ...    2.7033e-05  Tolerance :   1.0000e-07
  Last RMS-Density change    ...    1.1268e-06  Tolerance :   5.0000e-09
  Last DIIS Error            ...    2.9690e-03  Tolerance :   5.0000e-07
  Last Orbital Gradient      ...    1.0285e-05  Tolerance :   1.0000e-05
  Last Orbital Rotation      ...    9.5917e-06  Tolerance :   1.0000e-05


----------------
ORBITAL ENERGIES
----------------

  NO   OCC          E(Eh)            E(eV) 
   0   2.0000      -9.889313      -269.1019 
   1   2.0000      -9.880046      -268.8497 
   2   2.0000      -9.878680      -268.8125 
   3   2.0000      -9.878618      -268.8109 
   4   2.0000      -9.878464      -268.8067 
   5   2.0000      -9.878400      -268.8049 
   6   2.0000      -9.873889      -268.6822 
   7   2.0000      -0.756530       -20.5862 
   8   2.0000      -0.688912       -18.7462 
   9   2.0000      -0.666662       -18.1408 
  10   2.0000      -0.604670       -16.4539 
  11   2.0000      -0.543786       -14.7972 
  12   2.0000      -0.532273       -14.4839 
  13   2.0000      -0.461628       -12.5615 
  14   2.0000      -0.433181       -11.7874 
  15   2.0000      -0.412670       -11.2293 
  16   2.0000      -0.390657       -10.6303 
  17   2.0000      -0.369976       -10.0676 
  18   2.0000      -0.359373        -9.7790 
  19   2.0000      -0.331197        -9.0123 
  20   2.0000      -0.323501        -8.8029 
  21   2.0000      -0.314801        -8.5662 
  22   2.0000      -0.310163        -8.4400 
  23   2.0000      -0.298961        -8.1352 
  24   2.0000      -0.290375        -7.9015 
  25   2.0000      -0.259686        -7.0664 
  26   2.0000      -0.249722        -6.7953 
  27   2.0000      -0.248167        -6.7530 
  28   0.0000       0.010765         0.2929 
  29   0.0000       0.034262         0.9323 
  30   0.0000       0.040830         1.1110 
  31   0.0000       0.050174         1.3653 
  32   0.0000       0.066538         1.8106 
  33   0.0000       0.079374         2.1599 
  34   0.0000       0.080740         2.1970 
  35   0.0000       0.086831         2.3628 
  36   0.0000       0.087617         2.3842 
  37   0.0000       0.109197         2.9714 
  38   0.0000       0.110851         3.0164 
*Only the first 10 virtual orbitals were printed.

                    ********************************
                    * MULLIKEN POPULATION ANALYSIS *
                    ********************************

-----------------------
MULLIKEN ATOMIC CHARGES
-----------------------
   0 C :   -0.113082
   1 C :   -0.191943
   2 H :    0.059589
   3 H :    0.056785
   4 C :   -0.104770
   5 C :    0.055461
   6 H :    0.057993
   7 H :    0.070490
   8 C :   -0.142107
   9 H :    0.076344
  10 H :    0.052942
  11 C :   -0.162332
  12 H :    0.060663
  13 H :    0.072582
  14 C :   -0.296384
  15 H :    0.073283
  16 H :    0.071374
  17 H :    0.021722
  18 H :    0.096058
  19 H :    0.096685
  20 H :    0.088645
Sum of atomic charges:    0.0000000

--------------------------------
MULLIKEN REDUCED ORBITAL CHARGES
--------------------------------
  0 C s       :     3.106250  s :     3.106250
      pz      :     0.987841  p :     2.909864
      px      :     0.975798
      py      :     0.946224
      dz2     :     0.016278  d :     0.091534
      dxz     :     0.009754
      dyz     :     0.019006
      dx2y2   :     0.019004
      dxy     :     0.027492
      f0      :     0.000815  f :     0.005434
      f+1     :     0.000614
      f-1     :     0.000383
      f+2     :     0.000888
      f-2     :     0.000371
      f+3     :     0.001394
      f-3     :     0.000969

  1 C s       :     3.156234  s :     3.156234
      pz      :     1.003644  p :     2.942937
      px      :     0.982411
      py      :     0.956883
      dz2     :     0.012759  d :     0.087435
      dxz     :     0.011615
      dyz     :     0.019911
      dx2y2   :     0.019540
      dxy     :     0.023610
      f0      :     0.000605  f :     0.005336
      f+1     :     0.000647
      f-1     :     0.000553
      f+2     :     0.000984
      f-2     :     0.000285
      f+3     :     0.001460
      f-3     :     0.000802

  2 H s       :     0.919079  s :     0.919079
      pz      :     0.010386  p :     0.021332
      px      :     0.005190
      py      :     0.005756

  3 H s       :     0.921878  s :     0.921878
      pz      :     0.011046  p :     0.021337
      px      :     0.004774
      py      :     0.005517

  4 C s       :     3.109018  s :     3.109018
      pz      :     0.982765  p :     2.894395
      px      :     0.919458
      py      :     0.992171
      dz2     :     0.024659  d :     0.095865
      dxz     :     0.018805
      dyz     :     0.003887
      dx2y2   :     0.031915
      dxy     :     0.016599
      f0      :     0.000721  f :     0.005493
      f+1     :     0.001133
      f-1     :     0.000273
      f+2     :     0.000594
      f-2     :     0.000523
      f+3     :     0.001227
      f-3     :     0.001023

  5 C s       :     3.066469  s :     3.066469
      pz      :     0.921825  p :     2.730653
      px      :     0.904947
      py      :     0.903881
      dz2     :     0.027655  d :     0.139605
      dxz     :     0.018565
      dyz     :     0.022363
      dx2y2   :     0.035009
      dxy     :     0.036012
      f0      :     0.000912  f :     0.007812
      f+1     :     0.001191
      f-1     :     0.000505
      f+2     :     0.001233
      f-2     :     0.000567
      f+3     :     0.002185
      f-3     :     0.001220

  6 H s       :     0.920744  s :     0.920744
      pz      :     0.010928  p :     0.021262
      px      :     0.004913
      py      :     0.005422

  7 H s       :     0.908174  s :     0.908174
      pz      :     0.005967  p :     0.021336
      px      :     0.009235
      py      :     0.006134

  8 C s       :     3.131299  s :     3.131299
      pz      :     0.984899  p :     2.914069
      px      :     0.988836
      py      :     0.940334
      dz2     :     0.015176  d :     0.091310
      dxz     :     0.010148
      dyz     :     0.019868
      dx2y2   :     0.022050
      dxy     :     0.024067
      f0      :     0.000676  f :     0.005430
      f+1     :     0.000622
      f-1     :     0.000541
      f+2     :     0.000964
      f-2     :     0.000307
      f+3     :     0.001506
      f-3     :     0.000814

  9 H s       :     0.902317  s :     0.902317
      pz      :     0.004772  p :     0.021339
      px      :     0.004831
      py      :     0.011735

 10 H s       :     0.925771  s :     0.925771
      pz      :     0.011844  p :     0.021287
      px      :     0.004620
      py      :     0.004823

 11 C s       :     3.128483  s :     3.128483
      pz      :     1.003607  p :     2.940926
      px      :     0.974023
      py      :     0.963297
      dz2     :     0.016940  d :     0.087576
      dxz     :     0.007476
      dyz     :     0.019946
      dx2y2   :     0.017715
      dxy     :     0.025499
      f0      :     0.000788  f :     0.005347
      f+1     :     0.000636
      f-1     :     0.000421
      f+2     :     0.000945
      f-2     :     0.000331
      f+3     :     0.001299
      f-3     :     0.000926

 12 H s       :     0.918095  s :     0.918095
      pz      :     0.010500  p :     0.021242
      px      :     0.005089
      py      :     0.005653

 13 H s       :     0.906106  s :     0.906106
      pz      :     0.006283  p :     0.021312
      px      :     0.009704
      py      :     0.005325

 14 C s       :     3.204687  s :     3.204687
      pz      :     1.044762  p :     3.034351
      px      :     1.042132
      py      :     0.947457
      dz2     :     0.006970  d :     0.054075
      dxz     :     0.003783
      dyz     :     0.018412
      dx2y2   :     0.006333
      dxy     :     0.018578
      f0      :     0.000796  f :     0.003271
      f+1     :     0.000068
      f-1     :     0.000318
      f+2     :     0.000638
      f-2     :    -0.000001
      f+3     :     0.000801
      f-3     :     0.000650

 15 H s       :     0.905453  s :     0.905453
      pz      :     0.006546  p :     0.021263
      px      :     0.009465
      py      :     0.005252

 16 H s       :     0.907325  s :     0.907325
      pz      :     0.005666  p :     0.021300
      px      :     0.009606
      py      :     0.006028

 17 H s       :     0.956398  s :     0.956398
      pz      :     0.012020  p :     0.021880
      px      :     0.004672
      py      :     0.005187

 18 H s       :     0.882882  s :     0.882882
      pz      :     0.005732  p :     0.021060
      px      :     0.008824
      py      :     0.006505

 19 H s       :     0.882240  s :     0.882240
      pz      :     0.006129  p :     0.021075
      px      :     0.009038
      py      :     0.005908

 20 H s       :     0.890437  s :     0.890437
      pz      :     0.010721  p :     0.020918
      px      :     0.004780
      py      :     0.005416



                     *******************************
                     * LOEWDIN POPULATION ANALYSIS *
                     *******************************

----------------------
LOEWDIN ATOMIC CHARGES
----------------------
   0 C :   -0.261132
   1 C :   -0.238316
   2 H :    0.135042
   3 H :    0.134994
   4 C :   -0.268037
   5 C :   -0.283928
   6 H :    0.132760
   7 H :    0.132080
   8 C :   -0.261651
   9 H :    0.133102
  10 H :    0.132514
  11 C :   -0.237819
  12 H :    0.132494
  13 H :    0.132073
  14 C :   -0.284137
  15 H :    0.133726
  16 H :    0.133773
  17 H :    0.148878
  18 H :    0.117917
  19 H :    0.118257
  20 H :    0.117410

-------------------------------
LOEWDIN REDUCED ORBITAL CHARGES
-------------------------------
  0 C s       :     2.776614  s :     2.776614
      pz      :     1.024706  p :     3.047403
      px      :     1.010039
      py      :     1.012659
      dz2     :     0.077403  d :     0.397677
      dxz     :     0.052143
      dyz     :     0.073505
      dx2y2   :     0.091462
      dxy     :     0.103163
      f0      :     0.005186  f :     0.039439
      f+1     :     0.003545
      f-1     :     0.003878
      f+2     :     0.006572
      f-2     :     0.005394
      f+3     :     0.008422
      f-3     :     0.006442

  1 C s       :     2.776508  s :     2.776508
      pz      :     1.023715  p :     3.030667
      px      :     0.998938
      py      :     1.008014
      dz2     :     0.061944  d :     0.392410
      dxz     :     0.064584
      dyz     :     0.077251
      dx2y2   :     0.099606
      dxy     :     0.089025
      f0      :     0.004259  f :     0.038731
      f+1     :     0.003631
      f-1     :     0.005058
      f+2     :     0.006617
      f-2     :     0.004224
      f+3     :     0.009397
      f-3     :     0.005545

  2 H s       :     0.806039  s :     0.806039
      pz      :     0.029880  p :     0.058919
      px      :     0.013849
      py      :     0.015190

  3 H s       :     0.806095  s :     0.806095
      pz      :     0.031125  p :     0.058911
      px      :     0.013241
      py      :     0.014545

  4 C s       :     2.775125  s :     2.775125
      pz      :     1.022701  p :     3.047139
      px      :     1.019437
      py      :     1.005001
      dz2     :     0.116059  d :     0.406373
      dxz     :     0.075327
      dyz     :     0.020956
      dx2y2   :     0.121336
      dxy     :     0.072694
      f0      :     0.004222  f :     0.039400
      f+1     :     0.006351
      f-1     :     0.002738
      f+2     :     0.005772
      f-2     :     0.006675
      f+3     :     0.006915
      f-3     :     0.006728

  5 C s       :     2.732496  s :     2.732496
      pz      :     0.987133  p :     2.969062
      px      :     0.994498
      py      :     0.987431
      dz2     :     0.122927  d :     0.528880
      dxz     :     0.077781
      dyz     :     0.074800
      dx2y2   :     0.133067
      dxy     :     0.120305
      f0      :     0.005810  f :     0.053490
      f+1     :     0.006736
      f-1     :     0.004308
      f+2     :     0.009206
      f-2     :     0.006757
      f+3     :     0.012793
      f-3     :     0.007880

  6 H s       :     0.808412  s :     0.808412
      pz      :     0.031024  p :     0.058828
      px      :     0.013424
      py      :     0.014380

  7 H s       :     0.809017  s :     0.809017
      pz      :     0.018007  p :     0.058903
      px      :     0.024623
      py      :     0.016273

  8 C s       :     2.777227  s :     2.777227
      pz      :     1.025203  p :     3.047913
      px      :     1.008331
      py      :     1.014379
      dz2     :     0.068362  d :     0.397162
      dxz     :     0.058955
      dyz     :     0.078170
      dx2y2   :     0.100483
      dxy     :     0.091192
      f0      :     0.004590  f :     0.039349
      f+1     :     0.003507
      f-1     :     0.005110
      f+2     :     0.006737
      f-2     :     0.004491
      f+3     :     0.009298
      f-3     :     0.005615

  9 H s       :     0.808050  s :     0.808050
      pz      :     0.013895  p :     0.058849
      px      :     0.013223
      py      :     0.031730

 10 H s       :     0.808494  s :     0.808494
      pz      :     0.032082  p :     0.058992
      px      :     0.013165
      py      :     0.013746

 11 C s       :     2.775910  s :     2.775910
      pz      :     1.021792  p :     3.030204
      px      :     1.000325
      py      :     1.008086
      dz2     :     0.080938  d :     0.392878
      dxz     :     0.046270
      dyz     :     0.075478
      dx2y2   :     0.091326
      dxy     :     0.098866
      f0      :     0.004972  f :     0.038827
      f+1     :     0.003694
      f-1     :     0.004117
      f+2     :     0.006810
      f-2     :     0.004907
      f+3     :     0.008046
      f-3     :     0.006281

 12 H s       :     0.808638  s :     0.808638
      pz      :     0.030132  p :     0.058868
      px      :     0.013694
      py      :     0.015042

 13 H s       :     0.809047  s :     0.809047
      pz      :     0.018981  p :     0.058880
      px      :     0.025634
      py      :     0.014264

 14 C s       :     2.833164  s :     2.833164
      pz      :     1.068999  p :     3.160982
      px      :     1.063221
      py      :     1.028762
      dz2     :     0.046152  d :     0.265229
      dxz     :     0.025675
      dyz     :     0.066498
      dx2y2   :     0.045674
      dxy     :     0.081230
      f0      :     0.004272  f :     0.024763
      f+1     :     0.000335
      f-1     :     0.002894
      f+2     :     0.004854
      f-2     :     0.002943
      f+3     :     0.005104
      f-3     :     0.004361

 15 H s       :     0.807246  s :     0.807246
      pz      :     0.019746  p :     0.059028
      px      :     0.025166
      py      :     0.014116

 16 H s       :     0.807192  s :     0.807192
      pz      :     0.017045  p :     0.059035
      px      :     0.025921
      py      :     0.016069

 17 H s       :     0.793687  s :     0.793687
      pz      :     0.030234  p :     0.057435
      px      :     0.013180
      py      :     0.014021

 18 H s       :     0.820915  s :     0.820915
      pz      :     0.016931  p :     0.061168
      px      :     0.027240
      py      :     0.016997

 19 H s       :     0.820557  s :     0.820557
      pz      :     0.018223  p :     0.061187
      px      :     0.027608
      py      :     0.015357

 20 H s       :     0.821386  s :     0.821386
      pz      :     0.033308  p :     0.061204
      px      :     0.013586
      py      :     0.014310



                      *****************************
                      * MAYER POPULATION ANALYSIS *
                      *****************************

  NA   - Mulliken gross atomic population
  ZA   - Total nuclear charge
  QA   - Mulliken gross atomic charge
  VA   - Mayer's total valence
  BVA  - Mayer's bonded valence
  FA   - Mayer's free valence

  ATOM       NA         ZA         QA         VA         BVA        FA
  0 C      6.1131     6.0000    -0.1131     4.0744     4.0744     0.0000
  1 C      6.1919     6.0000    -0.1919     4.0983     4.0983    -0.0000
  2 H      0.9404     1.0000     0.0596     0.9792     0.9792    -0.0000
  3 H      0.9432     1.0000     0.0568     0.9805     0.9805     0.0000
  4 C      6.1048     6.0000    -0.1048     4.1448     4.1448    -0.0000
  5 C      5.9445     6.0000     0.0555     4.1071     4.1071    -0.0000
  6 H      0.9420     1.0000     0.0580     0.9747     0.9747     0.0000
  7 H      0.9295     1.0000     0.0705     0.9667     0.9667     0.0000
  8 C      6.1421     6.0000    -0.1421     4.0924     4.0924    -0.0000
  9 H      0.9237     1.0000     0.0763     0.9675     0.9675    -0.0000
 10 H      0.9471     1.0000     0.0529     0.9688     0.9688    -0.0000
 11 C      6.1623     6.0000    -0.1623     4.0787     4.0787     0.0000
 12 H      0.9393     1.0000     0.0607     0.9735     0.9735     0.0000
 13 H      0.9274     1.0000     0.0726     0.9664     0.9664     0.0000
 14 C      6.2964     6.0000    -0.2964     3.9119     3.9119     0.0000
 15 H      0.9267     1.0000     0.0733     0.9676     0.9676    -0.0000
 16 H      0.9286     1.0000     0.0714     0.9688     0.9688     0.0000
 17 H      0.9783     1.0000     0.0217     0.9686     0.9686    -0.0000
 18 H      0.9039     1.0000     0.0961     0.9777     0.9777     0.0000
 19 H      0.9033     1.0000     0.0967     0.9771     0.9771     0.0000
 20 H      0.9114     1.0000     0.0886     0.9903     0.9903     0.0000

  Mayer bond orders larger than 0.100000
B(  0-C ,  1-C ) :   1.0760 B(  0-C ,  4-C ) :   1.0807 B(  0-C ,  6-H ) :   0.9416 
B(  0-C ,  7-H ) :   0.9362 B(  1-C ,  2-H ) :   0.9433 B(  1-C ,  5-C ) :   1.0616 
B(  1-C , 15-H ) :   0.9392 B(  3-H , 11-C ) :   0.9351 B(  4-C ,  8-C ) :   1.0798 
B(  4-C ,  9-H ) :   0.9416 B(  4-C , 10-H ) :   0.9250 B(  5-C , 11-C ) :   1.0615 
B(  5-C , 14-C ) :   0.9708 B(  5-C , 17-H ) :   0.9158 B(  8-C , 11-C ) :   1.0769 
B(  8-C , 12-H ) :   0.9478 B(  8-C , 13-H ) :   0.9381 B( 11-C , 16-H ) :   0.9393 
B( 14-C , 18-H ) :   0.9705 B( 14-C , 19-H ) :   0.9699 B( 14-C , 20-H ) :   0.9697 


-------
TIMINGS
-------

Total SCF time: 0 days 0 hours 0 min 12 sec 

Total time                  ....      12.886 sec
Sum of individual times     ....      12.087 sec  ( 93.8%)

SCF preparation             ....       0.025 sec  (  0.2%)
Fock matrix formation       ....      11.953 sec  ( 92.8%)
  Startup                   ....       0.002 sec  (  0.0% of F)
  Split-RI-J                ....       3.502 sec  ( 29.3% of F)
  XC integration            ....       9.209 sec  ( 77.0% of F)
    Basis function eval.    ....       2.957 sec  ( 32.1% of XC)
    Density eval.           ....       1.746 sec  ( 19.0% of XC)
    XC-Functional eval.     ....       0.178 sec  (  1.9% of XC)
    XC-Potential eval.      ....       4.160 sec  ( 45.2% of XC)
Diagonalization             ....       0.000 sec  (  0.0%)
Density matrix formation    ....       0.009 sec  (  0.1%)
Total Energy calculation    ....       0.006 sec  (  0.0%)
Population analysis         ....       0.006 sec  (  0.0%)
Orbital Transformation      ....       0.013 sec  (  0.1%)
Orbital Orthonormalization  ....       0.000 sec  (  0.0%)
DIIS solution               ....       0.053 sec  (  0.4%)
SOSCF solution              ....       0.023 sec  (  0.2%)
Finished LeanSCF after  12.9 sec

Maximum memory used throughout the entire LEANSCF-calculation: 34.2 MB

------------------------------------------------------------------------------
                         ORCA PROPERTY INTEGRAL CALCULATIONS
------------------------------------------------------------------------------

GBWName                                   ... job.gbw
Number of atoms                           ...     21
Number of basis functions                 ...    301
Max core memory                           ...  16384 MB

Dipole integrals                          ... YES
Quadrupole integrals                      ...  NO
Linear momentum integrals                 ...  NO
Angular momentum integrals                ...  NO
Higher moments length integrals           ...  NO
Higher moments velocity integrals         ...  NO
Kinetic energy integrals                  ...  NO
GIAO right hand sides                     ...  NO
GIAO dipole derivative integrals          ...  NO
SOC integrals                             ...  NO
EPR diamagnetic integrals (GIAO)          ...  NO
EPR gauge integrals                       ...  NO
Field gradient integrals                  ...  NO (   0 nuclei)
Spin-dipole/Fermi contact integrals       ...  NO (   0 nuclei)
Contact density integrals                 ...  NO (   0 nuclei)
Nucleus-orbit integrals                   ...  NO (   0 nuclei)
Geometric perturbations                   ...  NO (  21 nuclei)

Choice of electric origin   ... Center of mass
Position of electric origin ... ( -3.7208,  3.4153,  0.0360) 
Choice of magnetic origin   ... GIAO
Position of magnetic origin ... (  0.0000,  0.0000,  0.0000) 

Calculating integrals                     ... Electric Dipole (Length)     done (  0.0 sec)

Property integrals calculated in   0.0 sec

Maximum memory used throughout the entire PROPINT-calculation: 26.8 MB

-------------------------   --------------------
FINAL SINGLE POINT ENERGY      -275.179824493848
-------------------------   --------------------

------------------------------------------------------------------------------
                         ORCA SCF GRADIENT CALCULATION
------------------------------------------------------------------------------

Nuc. rep. gradient        (SHARK) ... done (  0.0 sec)
HCore & Overlap gradient  (SHARK) ... done (  0.2 sec)
Split-RIJ-J gradient      (SHARK) ... done (  1.3 sec)
XC gradient                       ... done (  5.0 sec)

------------------
CARTESIAN GRADIENT
------------------

   1   C   :    0.005232348   -0.008931078    0.002217316
   2   C   :    0.003879944    0.003980068   -0.001697759
   3   H   :   -0.000995099    0.004624377    0.002225933
   4   H   :    0.001920142    0.004153093    0.002599762
   5   C   :   -0.000057042   -0.002153185   -0.001872564
   6   C   :    0.000273989    0.005933285    0.005518860
   7   H   :   -0.000201088   -0.003111357    0.003296529
   8   H   :    0.002623523   -0.003189431   -0.000623429
   9   C   :   -0.007062863   -0.008321247    0.001275478
  10   H   :   -0.000187767   -0.003951344   -0.000543960
  11   H   :    0.000089576   -0.000196143   -0.004291843
  12   C   :   -0.002423178    0.004328602   -0.000260393
  13   H   :   -0.000530685   -0.003294685    0.002877004
  14   H   :   -0.003043742   -0.002570269   -0.001173102
  15   C   :   -0.000166546    0.001004899   -0.003804160
  16   H   :    0.002120420    0.003253960   -0.001830108
  17   H   :   -0.001679275    0.003790529   -0.001115974
  18   H   :   -0.000372601   -0.001982079   -0.004110707
  19   H   :   -0.003049437    0.003055300   -0.001244021
  20   H   :    0.003363083    0.002650300   -0.001465904
  21   H   :    0.000266300    0.000926402    0.004023042

Difference to translation invariance:
           :    0.0000000000   -0.0000000000   -0.0000000000

Difference to rotation invariance:
           :    0.0001898866    0.0000777714    0.0002180693

Norm of the Cartesian gradient     ...    0.0256981751
RMS gradient                       ...    0.0032376657
MAX gradient                       ...    0.0089310779

-------
TIMINGS
-------

Total SCF gradient time     ....        6.517 sec

Densities                   ....       0.000 sec  (  0.0%)
One electron gradient       ....       0.223 sec  (  3.4%)
RI-J Coulomb gradient       ....       1.265 sec  ( 19.4%)
XC gradient                 ....       5.028 sec  ( 77.2%)

Maximum memory used throughout the entire SCFGRAD-calculation: 44.4 MB
------------------------------------------------------------------------------
                         ORCA GEOMETRY RELAXATION STEP
------------------------------------------------------------------------------

Reading the OPT-File                    .... done
Getting information on internals        .... done
Copying old internal coords+grads       .... done
Making the new internal coordinates     .... (2022 redundants) done
Validating the new internal coordinates .... (2022 redundants) done
Calculating the B-matrix                .... done
Calculating the G,G- and P matrices     .... done
Transforming gradient to internals      .... done
Projecting the internal gradient        .... done
Number of atoms                         ....  21
Number of internal coordinates          .... 105
Current Energy                          ....  -275.179824494 Eh
Current gradient norm                   ....     0.025698175 Eh/bohr
Maximum allowed component of the step   ....  0.300
Current trust radius                    ....  0.300
Evaluating the initial hessian          ....  (Almloef) done
Projecting the Hessian                  .... done
Forming the augmented Hessian           .... done
Diagonalizing the augmented Hessian     .... done
Last element of RFO vector              ....  0.992100612
Lowest eigenvalues of augmented Hessian:
 -0.003913378  0.011122386  0.011319218  0.013627407  0.019619887
Length of the computed step             ....  0.126443539
The final length of the internal step   ....  0.126443539
Converting the step to Cartesian space:
 Initial RMS(Int)=    0.0123396259
Transforming coordinates:
 Iter   0:  RMS(Cart)=    0.0300086807 RMS(Int)=    0.0123419989
done
Storing new coordinates                 .... done

                                .--------------------.
          ----------------------|Geometry convergence|-------------------------
          Item                value                   Tolerance       Converged
          ---------------------------------------------------------------------
          RMS gradient        0.0035566647            0.0001000000      NO
          MAX gradient        0.0181382257            0.0003000000      NO
          RMS step            0.0123396259            0.0020000000      NO
          MAX step            0.0479844259            0.0040000000      NO
          -------------------------------------------------------------------------
          ........................................................
          Max(Bonds)      0.0254      Max(Angles)    0.93
          Max(Dihed)        1.49      Max(Improp)    0.00
          ---------------------------------------------------------------------

The optimization has not yet converged - more geometry cycles are needed


    ---------------------------------------------------------------------------
                         Redundant Internal Coordinates
                            (Angstroem and degrees)

        Definition                    Value    dE/dq     Step     New-Value
    ----------------------------------------------------------------------------
     1. B(C   1,C   0)                1.5315 -0.018138  0.0254    1.5569   
     2. B(H   2,C   1)                1.0981 -0.003463  0.0052    1.1032   
     3. B(C   4,C   0)                1.5234 -0.009335  0.0126    1.5361   
     4. B(C   5,C   1)                1.5339 -0.006452  0.0092    1.5431   
     5. B(H   6,C   0)                1.0972 -0.004012  0.0060    1.1032   
     6. B(H   7,C   0)                1.0964 -0.003668  0.0055    1.1019   
     7. B(C   8,C   4)                1.5252 -0.009438  0.0129    1.5381   
     8. B(H   9,C   4)                1.0961 -0.003809  0.0057    1.1017   
     9. B(H  10,C   4)                1.0971 -0.004241  0.0063    1.1034   
    10. B(C  11,C   8)                1.5313 -0.017785  0.0252    1.5565   
    11. B(C  11,C   5)                1.5323 -0.006031  0.0088    1.5411   
    12. B(C  11,H   3)                1.0981 -0.003704  0.0055    1.1036   
    13. B(H  12,C   8)                1.0972 -0.003856  0.0058    1.1029   
    14. B(H  13,C   8)                1.0965 -0.003756  0.0056    1.1021   
    15. B(C  14,C   5)                1.5277 -0.007396  0.0103    1.5380   
    16. B(H  15,C   1)                1.0972 -0.003499  0.0052    1.1024   
    17. B(H  16,C  11)                1.0971 -0.003362  0.0050    1.1021   
    18. B(H  17,C   5)                1.0981 -0.004446  0.0067    1.1047   
    19. B(H  18,C  14)                1.0950 -0.004303  0.0064    1.1013   
    20. B(H  19,C  14)                1.0949 -0.004331  0.0064    1.1014   
    21. B(H  20,C  14)                1.0951 -0.004134  0.0061    1.1012   
    22. A(H   6,C   0,H   7)          106.03  0.000962   -0.27    105.76   
    23. A(C   1,C   0,C   4)          113.53  0.001593   -0.42    113.11   
    24. A(C   1,C   0,H   6)          108.87 -0.002381    0.54    109.41   
    25. A(C   4,C   0,H   6)          109.08  0.001208   -0.28    108.80   
    26. A(C   1,C   0,H   7)          109.58 -0.001252    0.45    110.03   
    27. A(C   4,C   0,H   7)          109.47 -0.000165   -0.02    109.45   
    28. A(C   0,C   1,C   5)          113.68 -0.001586    0.16    113.84   
    29. A(H   2,C   1,C   5)          109.93  0.003420   -0.93    109.00   
    30. A(C   5,C   1,H  15)          109.35  0.002514   -0.34    109.01   
    31. A(H   2,C   1,H  15)          105.82 -0.000294   -0.15    105.67   
    32. A(C   0,C   1,H   2)          108.46 -0.002701    0.69    109.15   
    33. A(C   0,C   1,H  15)          109.29 -0.001318    0.57    109.86   
    34. A(H   9,C   4,H  10)          106.39  0.000712   -0.24    106.14   
    35. A(C   8,C   4,H  10)          109.56 -0.000628    0.07    109.64   
    36. A(C   0,C   4,H  10)          109.52 -0.000103    0.03    109.56   
    37. A(C   8,C   4,H   9)          109.68  0.000139    0.05    109.73   
    38. A(C   0,C   4,H   9)          109.86  0.000010    0.08    109.94   
    39. A(C   0,C   4,C   8)          111.69 -0.000094   -0.01    111.68   
    40. A(C   1,C   5,C  14)          110.79 -0.001272    0.57    111.36   
    41. A(C  11,C   5,C  14)          110.94 -0.001069    0.59    111.52   
    42. A(C  14,C   5,H  17)          107.32  0.000011   -0.13    107.19   
    43. A(C   1,C   5,H  17)          108.55  0.000495   -0.40    108.14   
    44. A(C   1,C   5,C  11)          110.62  0.000899   -0.19    110.43   
    45. A(C  11,C   5,H  17)          108.52  0.000992   -0.47    108.05   
    46. A(H  12,C   8,H  13)          105.96  0.001804   -0.28    105.68   
    47. A(C  11,C   8,H  13)          109.66 -0.002654    0.52    110.18   
    48. A(C   4,C   8,H  13)          109.10 -0.000063    0.05    109.15   
    49. A(C  11,C   8,H  12)          108.73 -0.002323    0.50    109.23   
    50. A(C   4,C   8,C  11)          113.79  0.001742   -0.45    113.34   
    51. A(C   4,C   8,H  12)          109.30  0.001522   -0.33    108.97   
    52. A(H   3,C  11,H  16)          105.91  0.001813   -0.31    105.61   
    53. A(C   5,C  11,C   8)          113.35 -0.001908    0.20    113.55   
    54. A(H   3,C  11,C   8)          108.65 -0.002392    0.69    109.33   
    55. A(H   3,C  11,C   5)          109.58  0.003566   -0.86    108.72   
    56. A(C   8,C  11,H  16)          109.22 -0.003309    0.63    109.85   
    57. A(C   5,C  11,H  16)          109.86  0.002425   -0.38    109.48   
    58. A(H  19,C  14,H  20)          107.99  0.000623   -0.18    107.81   
    59. A(H  18,C  14,H  20)          107.97  0.000547   -0.17    107.80   
    60. A(C   5,C  14,H  20)          111.42  0.001088   -0.25    111.17   
    61. A(H  18,C  14,H  19)          107.81  0.001237   -0.09    107.71   
    62. A(C   5,C  14,H  19)          110.76 -0.001667    0.33    111.09   
    63. A(C   5,C  14,H  18)          110.75 -0.001713    0.34    111.09   
    64. D(C   5,C   1,C   0,H   7)   -126.48  0.000274   -0.57   -127.05   
    65. D(H   2,C   1,C   0,H   6)     -4.64 -0.000197   -0.21     -4.86   
    66. D(C   5,C   1,C   0,H   6)    117.97  0.001140   -0.80    117.17   
    67. D(C   5,C   1,C   0,C   4)     -3.75  0.000245   -0.55     -4.30   
    68. D(H   2,C   1,C   0,H   7)    110.91 -0.001063    0.01    110.92   
    69. D(H   2,C   1,C   0,C   4)   -126.36 -0.001091    0.03   -126.32   
    70. D(C   8,C   4,C   0,C   1)     52.06 -0.000686    0.77     52.83   
    71. D(H   9,C   4,C   0,H   7)    -63.20 -0.001196    1.17    -62.03   
[...]
      6      -0.048982  -0.036162   0.024211
      7      -0.055736  -0.036828   0.024442
      8      -0.081941  -0.057187   0.040102
      9      -0.040878  -0.012214   0.006596
     10      -0.024783  -0.005766   0.004054
     11      -0.215736  -0.074899   0.039498
     12      -0.006489  -0.000948   0.000255
     13      -0.034501  -0.003248   0.000763
     14       0.038316   0.005836  -0.001600
     15       0.001319   0.002092  -0.002764
     16       0.000754   0.002297  -0.000805
     17       0.005590   0.013684  -0.004662
     18       0.031713   0.007349  -0.001516
     19       0.013900   0.003836  -0.000511
     20      -0.249861  -0.058357   0.012965
     21       0.171877   0.047214  -0.010177
     22      -0.106368  -0.029537   0.006896
     23      -0.039179  -0.010813   0.002274
     24       0.008296   0.001836  -0.000781
     25      -0.014498  -0.001612   0.000699
     26       0.055986   0.008009  -0.002935
     27       0.027483   0.002539  -0.000120
     28       0.399528   0.036018  -0.008468
     29      -0.087519  -0.007851   0.001849
     30       0.048495   0.008067  -0.002083
     31       0.016967   0.003207  -0.000973
     32      -0.366524  -0.061153   0.016957
     33       0.020301   0.005904  -0.005031
     34      -0.008234  -0.002123   0.002425
     35       0.021717   0.006629  -0.004364
     36       0.187701   0.023825  -0.008617
     37       0.206303   0.025729  -0.009733
     38      -0.352895  -0.044657   0.015972
     39      -0.284455  -0.046307   0.018336
     40      -0.036807  -0.006925   0.002478
     41      -0.318544  -0.051913   0.020419
     42      -0.004255  -0.016583  -0.089762
     43       0.003571  -0.011806   0.009186
     44      -0.018859   0.086080  -0.013083
     45       0.100876   0.062930  -0.018423
     46       0.010344   0.003391  -0.002367
     47      -0.123012  -0.075175   0.022851
     48      -0.203610  -0.055041   0.058678
     49       0.123793   0.033480  -0.032724
     50      -0.040896  -0.010089   0.010440
     51      -0.010786  -0.025577   0.011352
     52      -0.009961  -0.027868   0.010263
     53      -0.065160  -0.142341   0.051965
     54       0.097078  -0.185466   0.659033
     55      -0.050312   0.094746  -0.361955
     56       0.032919  -0.048949   0.263873
     57      -0.067746   0.484188   0.414473
     58      -0.029067   0.221859   0.202373
     59       0.039313  -0.307516  -0.299053
     60       0.020486  -0.101381   0.003547
     61       0.037667  -0.177305   0.051137
     62       0.151347  -0.677204   0.192559


-----------
IR SPECTRUM
-----------

 Mode   freq       eps      Int      T**2         TX        TY        TZ
       cm**-1   L/(mol*cm) km/mol    a.u.
----------------------------------------------------------------------------
  6:     92.22   0.000005    0.03  0.000018  (-0.000130  0.001602  0.003950)
  7:    169.30   0.000002    0.01  0.000004  (-0.000574 -0.001417  0.001428)
  8:    231.30   0.000001    0.01  0.000002  (-0.000414 -0.000590  0.001223)
  9:    245.94   0.000002    0.01  0.000003  (-0.000915  0.001302  0.000160)
 10:    295.40   0.000002    0.01  0.000002  ( 0.000477 -0.000624 -0.001169)
 11:    388.36   0.000060    0.30  0.000048  (-0.001085 -0.002273 -0.006478)
 12:    404.72   0.000007    0.04  0.000006  (-0.002081  0.000735 -0.000809)
 13:    462.21   0.000006    0.03  0.000004  ( 0.000126  0.001877 -0.000809)
 14:    550.44   0.000105    0.53  0.000060  ( 0.005410  0.002799 -0.004738)
 15:    735.14   0.000194    0.98  0.000082  ( 0.005517 -0.007134  0.000962)
 16:    757.06   0.000320    1.62  0.000132  (-0.000255 -0.003220  0.011015)
 17:    823.84   0.000090    0.45  0.000034  (-0.003344 -0.002879  0.003799)
 18:    834.57   0.000248    1.25  0.000093  ( 0.001892 -0.009370  0.001127)
 19:    854.44   0.000086    0.43  0.000031  (-0.005127  0.000329 -0.002241)
 20:    882.57   0.000017    0.08  0.000006  (-0.001916 -0.000368  0.001456)
 21:    927.01   0.000076    0.39  0.000026  (-0.004276  0.001088  0.002498)
 22:    952.21   0.000296    1.50  0.000097  ( 0.009396 -0.000933 -0.002810)
 23:    968.03   0.000145    0.73  0.000047  ( 0.003492 -0.000651  0.005850)
 24:   1019.45   0.000101    0.51  0.000031  (-0.004247 -0.001861 -0.003068)
 25:   1065.19   0.000011    0.06  0.000003  (-0.001110 -0.000106  0.001457)
 26:   1069.43   0.000189    0.95  0.000055  ( 0.004334 -0.005919 -0.001147)
 27:   1085.35   0.000026    0.13  0.000008  (-0.002327 -0.001371  0.000490)
 28:   1093.45   0.000123    0.62  0.000035  (-0.005779 -0.000208  0.001252)
 29:   1136.53   0.000255    1.29  0.000070  ( 0.001560 -0.008184  0.000772)
 30:   1184.01   0.000034    0.17  0.000009  ( 0.001838 -0.002321  0.000508)
 31:   1220.90   0.000083    0.42  0.000021  (-0.000966 -0.002590  0.003691)
 32:   1245.50   0.000024    0.12  0.000006  (-0.001460  0.000039  0.001983)
 33:   1263.60   0.000306    1.54  0.000075  (-0.007707 -0.002984 -0.002676)
 34:   1283.05   0.000220    1.11  0.000053  (-0.003373 -0.004158 -0.004982)
 35:   1290.18   0.000028    0.14  0.000007  ( 0.000821 -0.002170  0.001176)
 36:   1313.00   0.000313    1.58  0.000074  (-0.002693  0.008192  0.000277)
 37:   1319.80   0.000119    0.60  0.000028  (-0.003689 -0.003760  0.000561)
 38:   1328.91   0.000324    1.64  0.000076  ( 0.008035 -0.003205 -0.001108)
 39:   1331.02   0.000161    0.81  0.000038  ( 0.004284  0.004250 -0.001158)
 40:   1343.08   0.000041    0.21  0.000010  ( 0.000067  0.002997 -0.000764)
 41:   1361.18   0.000515    2.60  0.000118  (-0.001273 -0.009760 -0.004611)
 42:   1437.40   0.000041    0.21  0.000009  (-0.001852  0.001530 -0.001770)
 43:   1440.47   0.000314    1.59  0.000068  (-0.001602 -0.006731  0.004499)
 44:   1447.25   0.000470    2.38  0.000101  (-0.007345  0.003177  0.006114)
 45:   1450.46   0.000374    1.89  0.000081  (-0.006638 -0.005154  0.003151)
 46:   1452.92   0.001546    7.81  0.000332  (-0.013430  0.000916 -0.012282)
 47:   1454.75   0.001634    8.26  0.000351  (-0.001730  0.005758  0.017730)
 48:   1466.74   0.000396    2.00  0.000084  ( 0.001008  0.003198 -0.008539)
 49:   2919.14   0.001065    5.38  0.000114  (-0.006239  0.001107 -0.008586)
 50:   2942.26   0.003769   19.04  0.000400  ( 0.000406  0.016896  0.010681)
 51:   2943.92   0.003639   18.39  0.000386  (-0.013125 -0.006686  0.012991)
 52:   2948.21   0.005355   27.06  0.000567  (-0.019061  0.012199  0.007396)
 53:   2950.78   0.008718   44.06  0.000922  (-0.009338 -0.028007  0.007100)
 54:   2955.69   0.009497   47.99  0.001003  ( 0.012384  0.018473  0.022540)
 55:   2959.42   0.007766   39.25  0.000819  ( 0.025331  0.012121  0.005508)
 56:   2977.27   0.005139   25.97  0.000539  ( 0.004711 -0.013678 -0.018149)
 57:   2979.54   0.005668   28.65  0.000594  (-0.019444  0.012649 -0.007456)
 58:   2991.24   0.006452   32.60  0.000673  ( 0.023175  0.011649  0.000547)
 59:   2998.36   0.010856   54.86  0.001130  ( 0.020938 -0.024649 -0.009156)
 60:   3005.95   0.014379   72.66  0.001493  (-0.001634 -0.012344  0.036575)
 61:   3016.31   0.013656   69.01  0.001413  (-0.004061 -0.006337  0.036826)
 62:   3021.22   0.008130   41.09  0.000840  (-0.027385  0.003919 -0.008631)

* The epsilon (eps) is given for a Dirac delta lineshape.
** The dipole moment derivative (T) already includes vibrational overlap.

The first frequency considered to be a vibration is 6
The total number of vibrations considered is 57


--------------------------
THERMOCHEMISTRY AT 298.15K
--------------------------

Temperature         ...   298.15 K
Pressure            ...     1.00 atm
Total Mass          ...    98.19 AMU
Quasi RRHO          ...     True
Cut-Off Frequency   ...     1.00 cm^-1

Throughout the following assumptions are being made:
  (1) The electronic state is orbitally nondegenerate
  (2) There are no thermally accessible electronically excited states
  (3) Hindered rotations indicated by low frequency modes are not
      treated as such but are treated as vibrations and this may
      cause some error
  (4) All equations used are the standard statistical mechanics
      equations for an ideal gas
  (5) All vibrations are strictly harmonic

freq.      92.22  E(vib)   ...       0.47 
freq.     169.30  E(vib)   ...       0.38 
freq.     231.30  E(vib)   ...       0.32 
freq.     245.94  E(vib)   ...       0.31 
freq.     295.40  E(vib)   ...       0.27 
freq.     388.36  E(vib)   ...       0.20 
freq.     404.72  E(vib)   ...       0.19 
freq.     462.21  E(vib)   ...       0.16 
freq.     550.44  E(vib)   ...       0.12 
freq.     735.14  E(vib)   ...       0.06 
freq.     757.06  E(vib)   ...       0.06 
freq.     823.84  E(vib)   ...       0.05 
freq.     834.57  E(vib)   ...       0.04 
freq.     854.44  E(vib)   ...       0.04 
freq.     882.57  E(vib)   ...       0.04 
freq.     927.01  E(vib)   ...       0.03 
freq.     952.21  E(vib)   ...       0.03 
freq.     968.03  E(vib)   ...       0.03 
freq.    1019.45  E(vib)   ...       0.02 
freq.    1065.19  E(vib)   ...       0.02 
freq.    1069.43  E(vib)   ...       0.02 
freq.    1085.35  E(vib)   ...       0.02 
freq.    1093.45  E(vib)   ...       0.02 
freq.    1136.53  E(vib)   ...       0.01 
freq.    1184.01  E(vib)   ...       0.01 
freq.    1220.90  E(vib)   ...       0.01 
freq.    1245.50  E(vib)   ...       0.01 
freq.    1263.60  E(vib)   ...       0.01 
freq.    1283.05  E(vib)   ...       0.01 
freq.    1290.18  E(vib)   ...       0.01 
freq.    1313.00  E(vib)   ...       0.01 
freq.    1319.80  E(vib)   ...       0.01 
freq.    1328.91  E(vib)   ...       0.01 
freq.    1331.02  E(vib)   ...       0.01 
freq.    1343.08  E(vib)   ...       0.01 
freq.    1361.18  E(vib)   ...       0.01 
freq.    1437.40  E(vib)   ...       0.00 
freq.    1440.47  E(vib)   ...       0.00 
freq.    1447.25  E(vib)   ...       0.00 
freq.    1450.46  E(vib)   ...       0.00 
freq.    1452.92  E(vib)   ...       0.00 
freq.    1454.75  E(vib)   ...       0.00 
freq.    1466.74  E(vib)   ...       0.00 
freq.    2919.14  E(vib)   ...       0.00 
freq.    2942.26  E(vib)   ...       0.00 
freq.    2943.92  E(vib)   ...       0.00 
freq.    2948.21  E(vib)   ...       0.00 
freq.    2950.78  E(vib)   ...       0.00 
freq.    2955.69  E(vib)   ...       0.00 
freq.    2959.42  E(vib)   ...       0.00 
freq.    2977.27  E(vib)   ...       0.00 
freq.    2979.54  E(vib)   ...       0.00 
freq.    2991.24  E(vib)   ...       0.00 
freq.    2998.36  E(vib)   ...       0.00 
freq.    3005.95  E(vib)   ...       0.00 
freq.    3016.31  E(vib)   ...       0.00 
freq.    3021.22  E(vib)   ...       0.00 

------------
INNER ENERGY
------------

The inner energy is: U= E(el) + E(ZPE) + E(vib) + E(rot) + E(trans)
    E(el)   - is the total energy from the electronic structure calculation
              = E(kin-el) + E(nuc-el) + E(el-el) + E(nuc-nuc)
    E(ZPE)  - the the zero temperature vibrational energy from the frequency calculation
    E(vib)  - the the finite temperature correction to E(ZPE) due to population
              of excited vibrational states
    E(rot)  - is the rotational thermal energy
    E(trans)- is the translational thermal energy

Summary of contributions to the inner energy U:
Electronic energy                ...   -275.18342120 Eh
Zero point energy                ...      0.19202151 Eh     120.50 kcal/mol
Thermal vibrational correction   ...      0.00479829 Eh       3.01 kcal/mol
Thermal rotational correction    ...      0.00141627 Eh       0.89 kcal/mol
Thermal translational correction ...      0.00141627 Eh       0.89 kcal/mol
-----------------------------------------------------------------------
Total thermal energy                   -274.98376886 Eh


Summary of corrections to the electronic energy:
(perhaps to be used in another calculation)
Total thermal correction                  0.00763083 Eh       4.79 kcal/mol
Non-thermal (ZPE) correction              0.19202151 Eh     120.50 kcal/mol
-----------------------------------------------------------------------
Total correction                          0.19965234 Eh     125.28 kcal/mol


--------
ENTHALPY
--------

The enthalpy is H = U + kB*T
                kB is Boltzmann's constant
Total thermal energy              ...   -274.98376886 Eh 
Thermal Enthalpy correction       ...      0.00094421 Eh       0.59 kcal/mol
-----------------------------------------------------------------------
Total Enthalpy                    ...   -274.98282465 Eh


Note: Only C1 symmetry has been detected, increase convergence thresholds 
      if your molecule has a higher symmetry. Symmetry factor of 1.0 is   
      used for the rotational entropy correction. 
 

Note: Rotational entropy computed according to Herzberg 
Infrared and Raman Spectra, Chapter V,1, Van Nostrand Reinhold, 1945 
Point Group:  C1, Symmetry Number:   1  
Rotational constants in cm-1:     0.135994     0.072241     0.053233 

Vibrational entropy computed according to the QRRHO of S. Grimme
Chem.Eur.J. 2012 18 9955 using a reference frequency of 100.0 cm-1


-------
ENTROPY
-------

The entropy contributions are T*S = T*(S(el)+S(vib)+S(rot)+S(trans))
     S(el)   - electronic entropy
     S(vib)  - vibrational entropy
     S(rot)  - rotational entropy
     S(trans)- translational entropy
The entropies will be listed as multiplied by the temperature to get
units of energy

Electronic entropy                ...      0.00000000 Eh      0.00 kcal/mol
Vibrational entropy               ...      0.00779559 Eh      4.89 kcal/mol
Rotational entropy                ...      0.01307791 Eh      8.21 kcal/mol
Translational entropy             ...      0.01884536 Eh     11.83 kcal/mol
-----------------------------------------------------------------------
Final entropy term                ...      0.03971886 Eh     24.92 kcal/mol

In case the symmetry of your molecule has not been determined correctly
or in case you have a reason to use a different symmetry number we print 
out the resulting rotational entropy values for sn=1,12:

 non-linear molecules -----------------------------------
|  sn= 1 | S(rot)=       0.01307791 Eh      8.21 kcal/mol|
|  sn= 2 | S(rot)=       0.01242346 Eh      7.80 kcal/mol|
|  sn= 3 | S(rot)=       0.01204062 Eh      7.56 kcal/mol|
|  sn= 4 | S(rot)=       0.01176900 Eh      7.39 kcal/mol|
|  sn= 5 | S(rot)=       0.01155831 Eh      7.25 kcal/mol|
|  sn= 6 | S(rot)=       0.01138617 Eh      7.14 kcal/mol|
|  sn= 7 | S(rot)=       0.01124062 Eh      7.05 kcal/mol|
|  sn= 8 | S(rot)=       0.01111454 Eh      6.97 kcal/mol|
|  sn= 9 | S(rot)=       0.01100334 Eh      6.90 kcal/mol|
|  sn=10 | S(rot)=       0.01090386 Eh      6.84 kcal/mol|
|  sn=11 | S(rot)=       0.01081387 Eh      6.79 kcal/mol|
|  sn=12 | S(rot)=       0.01073171 Eh      6.73 kcal/mol|
 linear molecules ---------------------------------------
|  Dinfh | S(rot)=       0.00809516 Eh      5.08 kcal/mol|
|  Cinfv | S(rot)=       0.00874962 Eh      5.49 kcal/mol|
 --------------------------------------------------------


-------------------
GIBBS FREE ENERGY
-------------------

The Gibbs free energy is G = H - T*S

Total enthalpy                    ...   -274.98282465 Eh 
Total entropy correction          ...     -0.03971886 Eh    -24.92 kcal/mol
-----------------------------------------------------------------------
Final Gibbs free energy         ...   -275.02254352 Eh

For completeness - the Gibbs free energy minus the electronic energy
G-E(el)                           ...      0.16087769 Eh    100.95 kcal/mol


Maximum memory used throughout the entire PROP-calculation: 66.0 MB

--------------------------------
SUGGESTED CITATIONS FOR THIS RUN
--------------------------------

Below you find a list of papers that are relevant to this ORCA run
We neither can nor want to force you to cite these papers, but we appreciate if you do
You receive ORCA, which is the product of decades of hard work by many enthusiastic individuals, for free
The only thing we kindly ask in return is that you cite our papers,
We deeply appreciate it, if you show your appreciation for ORCA by not just citing the generic ORCA reference.

Please note that relegating all ORCA citations to the supporting information does *not* help us.
SI sections are not indexed - citations you put there will not count into any citation statistics
But we need these citations in order to attract the funding resources that allow us to do what we are doing

Therefore, if you are a happy ORCA user, please consider citing a few of the papers listed below in the main body of your paper

In addition to the list printed below, the program has created the file job.bibtex that contains the list in bibtex format
You can import this file easily into all common literature databanks and citation aid programs


List of essential papers. We consider these as the minimum necessary citations

  1. Neese, F.
     Software update: the ORCA program system, version 6.0
     WIRES Comput. Molec. Sci. 2025 15(1), e70019
     doi.org/10.1002/wcms.7019

List of papers to cite with high priority. The work reported in these papers was absolutely
necessary for this run to complete.
Our perspective: the developers of density functionals and basis sets usually get cited in chemistry papers
Good! But without the algorithms to do something with them, the functionals or basis sets would not do anything.
Hence, in our opinion, the algorithm design and method developments papers are equally worthy of getting cited

  1. Neese, F.
     An improvement of the resolution of the identity approximation for the formation of the Coulomb matrix
     J. Comp. Chem. 2003 24(14), 1740-1747
     doi.org/10.1002/jcc.10318
  2. Bykov, D.; Petrenko, T.; Izsak, R.; Kossmann, S.; Becker, U.; Valeev, E.; Neese, F.
     Efficient implementation of the analytic second derivatives of Hartree-Fock and hybrid DFT energies: a detailed analysis of different approximations
     Molec. Phys. 2015 113 , 1961-1977
     doi.org/10.1080/00268976.2015.1025114
  3. Neese, F.
     The SHARK Integral Generation and Digestion System
     J. Comp. Chem. 2022 44(3), 381
     doi.org/10.1002/jcc.26942

List of suggested additional citations. These are papers that are important in the 'surrounding' of 
of this run, or papers that preceded the highly important papers. If you like your results we are grateful for a citation.

  1. Neese, F.
     The ORCA program system
     WIRES Comput. Molec. Sci. 2012 2(1), 73-78
     doi.org/10.1002/wcms.81
  2. Neese, F.
     Software update: the ORCA program system, version 4.0
     WIRES Comput. Molec. Sci. 2018 8(1), 1-6
     doi.org/10.1002/wcms.1327
  3. Neese, F.; Wennmohs, F.; Becker, U.; Riplinger, C.
     The ORCA quantum chemistry program package
     J. Chem. Phys. 2020 152(22), 224108
     doi.org/10.1063/5.0004608
  4. Neese, F.
     Software update: The ORCA program system—Version 5.0
     WIRES Comput. Molec. Sci. 2022 12(1), e1606
     doi.org/10.1002/wcms.1606

List of optional additional citations

  1. Neese, F.
     Approximate second-order SCF convergence for spin unrestricted wavefunctions
     Chem. Phys. Lett. 2000 325(1-3), 93-98
     doi.org/10.1016/s0009-2614(00)00662-x

Timings for individual modules:

Sum of individual times          ...      523.649 sec (=   8.727 min)
Startup calculation              ...        7.492 sec (=   0.125 min)   1.4 %
SCF iterations                   ...      113.429 sec (=   1.890 min)  21.7 %
Property integrals               ...      175.870 sec (=   2.931 min)  33.6 %
SCF Response                     ...       62.688 sec (=   1.045 min)  12.0 %
Property calculations            ...       75.561 sec (=   1.259 min)  14.4 %
SCF Gradient evaluation          ...       88.565 sec (=   1.476 min)  16.9 %
Geometry relaxation              ...        0.044 sec (=   0.001 min)   0.0 %
                             ****ORCA TERMINATED NORMALLY****
TOTAL RUN TIME: 0 days 0 hours 8 minutes 44 seconds 470 msec
