
                                 *****************
                                 * O   R   C   A *
                                 *****************

                                            #,                                       
                                            ###                                      
                                            ####                                     
                                            #####                                    
                                            ######                                   
                                           ########,                                 
                                     ,,################,,,,,                         
                               ,,#################################,,                 
                          ,,##########################################,,             
                       ,#########################################, ''#####,          
                    ,#############################################,,   '####,        
                  ,##################################################,,,,####,       
                ,###########''''           ''''###############################       
              ,#####''   ,,,,##########,,,,          '''####'''          '####       
            ,##' ,,,,###########################,,,                        '##       
           ' ,,###''''                  '''############,,,                           
         ,,##''                                '''############,,,,        ,,,,,,###''
      ,#''                                            '''#######################'''  
     '                                                          ''''####''''         
             ,#######,   #######,   ,#######,      ##                                
            ,#'     '#,  ##    ##  ,#'     '#,    #''#        ,####,    ,#,          
            ##       ##  ##   ,#'  ##            #'  '#       #'       ,# #          
            ##       ##  #######   ##           ,######,      #####,      #          
            '#,     ,#'  ##    ##  '#,     ,#' ,#      #,     #,   #      #          
             '#######'   ##     ##  '#######'  #'      '#     '####' #    #          



                #########################################################
                #                        -***-                          #
                #          Department of theory and spectroscopy        #
                #                                                       #
                #                      Frank Neese                      #
                #                                                       #
                #     Directorship, Architecture, Infrastructure        #
                #                    SHARK, DRIVERS                     #
                #        Core code/Algorithms in most modules           #
                #                                                       #
                #        Max Planck Institute fuer Kohlenforschung      #
                #                Kaiser Wilhelm Platz 1                 #
                #                 D-45470 Muelheim/Ruhr                 #
                #                      Germany                          #
                #                                                       #
                #                  All rights reserved                  #
                #                        -***-                          #
                #########################################################


                         Program Version 6.1.0  -  RELEASE   -
                                (GIT: $679e74b7b5$)
                          ($2025-06-10 18:02:51 +0200$)


 With contributions from (in alphabetic order):
[Max-Planck-Institut fuer Kohlenforschung]                               
  Daniel Aravena         : Magnetic Suceptibility                        
  Michael Atanasov       : Ab Initio Ligand Field Theory (pilot matlab implementation)
  Alexander A. Auer      : GIAO ZORA, VPT2 properties, NMR spectrum      
  Ute Becker             : All parallelization in ORCA, NUMFREQ, NUMCALC 
  Giovanni Bistoni       : ED, misc. LED, open-shell LED, HFLD           
  Dmytro Bykov           : pre 5.0 version of the SCF Hessian            
  Marcos Casanova-Páez   : Triplet and SCS-CIS(D). UHF-(DLPNO)-IP/EA/STEOM-CCSD. UHF-CVS-IP/STEOM-CCSD   
  Vijay G. Chilkuri      : MRCI spin determinant printing, contributions to CSF-ICE 
  Pauline Colinet        : FMM embedding                                 
  Dipayan Datta          : RHF DLPNO-CCSD density                        
  Achintya Kumar Dutta   : EOM-CC, STEOM-CC                              
  Nicolas Foglia         : Exact transition moments, OPA infrastructure, MCD improvements    
  Dmitry Ganyushin       : Spin-Orbit,Spin-Spin,Magnetic field MRCI      
  Miquel Garcia-Rates    : C-PCM and meta-GGA Hessian, CCSD/C-PCM, Gaussian charge scheme 
  Tiago L. C. Gouveia    : GS-ROHF, GS-ROCIS                             
  Yang Guo               : DLPNO-NEVPT2, F12-NEVPT2, CIM, IAO-localization        
  Andreas Hansen         : Spin unrestricted coupled pair/coupled cluster methods 
  Ingolf Harden          : AUTO-CI MPn and infrastructure                
  Benjamin Helmich-Paris : MC-RPA, TRAH-(SCF,CASSCF), AVAS, COSX integrals, SCF dyn. polar., MC-PDFT, srDFT 
  Lee Huntington         : MR-EOM, pCC                                   
  Robert Izsak           : Overlap fitted RIJCOSX, COSX-SCS-MP3, EOM     
  Riya Kayal             : Wick's Theorem for AUTO-CI, AUTO-CI UHF-CCSDT 
  Emily Kempfer          : AUTO-CI RHF CISDT and CCSDT, approximate NEVPT4
  Christian Kollmar      : KDIIS, OOCD, Brueckner-CCSD(T), CCSD density, CASPT2, CASPT2-K, improved NEVPT2 
  Axel Koslowski         : Symmetry handling                             
  Simone Kossmann        : meta-GGA functionals, TD-DFT gradient, OOMP2, (MP2 Hessian; deprecated post 5.0) 
  Lucas Lang             : DCDCAS, Hyperfine gauge corrections, ICE-SOC+SSC
  Marvin Lechner         : AUTO-CI (C++ implementation), FIC-MRCC        
  Spencer Leger          : CASSCF response                               
  Dagmar Lenk            : GEPOL surface, SMD, ORCA-2-JSON               
  Dimitrios Liakos       : Extrapolation schemes; Compound Job, Property file
  Dimitrios Manganas     : Further ROCIS development; embedding schemes. LFT, Crystal Embedding 
  Dimitrios Pantazis     : SARC Basis sets                               
  Anastasios Papadopoulos: AUTO-CI, single reference methods and gradients 
  Taras Petrenko         : pre 6.0 DFT Hessian and TD-DFT gradient,  ECA, NRVS 
  Petra Pikulova         : Analytic Raman intensities                    
  Peter Pinski           : DLPNO-MP2, DLPNO-MP2 Gradient                 
  Shashank Vittal Rao    : ES-AILFT, MagRelax                            
  Christoph Reimann      : Effective Core Potentials                     
  Marius Retegan         : Local ZFS, SOC                                
  Christoph Riplinger    : Optimizer, TS searches, QM/MM, DLPNO-CCSD(T), (RO)-DLPNO pert. Triples 
  Michael Roemelt        : Original ROCIS implementation, recursive CI coupling coefficients
  Masaaki Saitow         : Open-shell DLPNO-CCSD energy and density      
  Barbara Sandhoefer     : DKH picture change effects                    
  Yorick L. A. Schmerwitz: GMF and freeze-and-release deltaSCF, NEB S-IDPP initial path                    
  Kantharuban Sivalingam : CASSCF convergence/infrastructure, NEVPT2, NEVPT3, NEVPT4(SD), FIC-MRCI and CEPA variants
  Bernardo de Souza      : ESD, SOC TD-DFT                               
  Georgi L. Stoychev     : AutoAux, RI-MP2 NMR, DLPNO-MP2 response, X2C  
  Van Anh Tran           : RI-MP2 g-tensors                              
  Willem Van den Heuvel  : Paramagnetic NMR                              
  Zikuan Wang            : NOTCH, Electric field optimization            
  Frank Wennmohs         : Technical directorship and infrastructure     
  Hang Xu                : AUTO-CI-Response properties                   
                                                                         
[FACCTs GmbH]                                                            
  Markus Bursch, Nicolas Foglia, Miquel Garcia-Rates, Ingolf Harden, Hagen Neugebauer, Anastasios Papadopoulos, 
  Christoph Riplinger, Bernardo de Souza, Georgi L. Stoychev                                                    
                                                                 
  APM, various basis sets, CI-OPT, improved COSX, DLPNO-Multilevel,           
  DOCKER, DRACO, updates on ESD, Fragmentator, GOAT, IRC, LR-CPCM, L-BFGS, MBIS, meta-GGA TD-DFT gradient, ML-optimized integration grids, 
  MM, NACMEs, nearIR, NEB, NEB-TS, NL-DFT gradient (VV10), 2- and 3-layer-ONIOM, interface openCOSMO-RS, QMMM,   
  Crystal-QMMM, RESP, rigid body optimization, SF, symmetry and pop. for TD-DFT, various functionals, SOLVATOR                                   
                                                                         
[Other institutions]                                                     
  V. Asgeirsson          : NEB                                           
  Christoph Bannwarth    : sTDA-DFT, sTD-DFT, PBEh-3c, B97-3c, D3        
  Giovanni Bistoni       : ETS/NOCV, ADLD/ADEX, COVALED                  
  Martin Brehm           : Molecular dynamics                            
  Ronald Cardenas        : ETS/NOCV                                      
  Martina Colucci        : COVALED                                       
  Sebastian Ehlert       : rSCAN, r2SCAN, r2SCAN-3c, D4, dhf basis sets  
  Marvin Friede          : D4 for Fr, Ra, Ac-Lr                          
  Lars Goerigk           : TD-DFT with DH, B97 family of functionals     
  Stefan Grimme          : VdW corrections, initial TS optimization, DFT functionals, gCP, sTDA/sTD-DF 
  Waldemar Hujo          : DFT-NL                                        
  H. Jonsson             : NEB                                           
  Holger Kruse           : gCP                                           
  Marcel Mueller         : wB97X-3c, vDZP basis set                      
  Hagen Neugebauer       : wr2SCAN, Native XTB                           
  Gianluca Regni         : ADLD/ADEX                                     
  Tobias Risthaus        : pre 6.0 range-separated hybrid DFT and stability analysis
  Lukas Wittmann         : regularized MP2, r2SCAN double-hybrids, wr2SCAN        
                                                                         
We gratefully acknowledge several colleagues who have allowed us to      
interface, adapt or use parts of their codes:                            
  Ed Valeev, F. Pavosevic, A. Kumar             : LibInt (2-el integral package), F12 methods 
  Garnet Chan, S. Sharma, J. Yang, R. Olivares  : DMRG                   
  Ulf Ekstrom                                   : XCFun DFT Library      
  Mihaly Kallay                                 : mrcc  (arbitrary order and MRCC methods)
  Frank Weinhold                                : gennbo (NPA and NBO analysis)           
  Simon Mueller                                 : openCOSMO-RS                            
  Christopher J. Cramer and Donald G. Truhlar   : smd solvation model                     
  S Lehtola, MJT Oliveira, MAL Marques          : LibXC Library                           
  Liviu Ungur et al                             : ANISO software                          


 Your calculation uses the libint2 library for the computation of 2-el integrals
 For citations please refer to: http://libint.valeyev.net

 Your ORCA version has been built with support for libXC version: 7.0.0
 For citations please refer to: https://libxc.gitlab.io

 This ORCA versions uses:
   CBLAS   interface :  Fast vector & matrix operations
   LAPACKE interface :  Fast linear algebra routines
   SCALAPACK package :  Parallel linear algebra routines
   Shared memory     :  Shared parallel matrices


  ***********************************
  * Starting time: Wed Jul  9 17:00:25 2025
  * Host name:     MacBook-Air-3.local
  * Process ID:    74020
  * Working dir.:  /Users/blenl/Desktop/Folders/Projects/DFT2/Anisole/frequency
  ***********************************

NOTE: MaxCore=16384 MB was set to SCF,MP2,MDCI,CIPSI,MRCI,RASCI and CIS
      => If you want to overwrite this, your respective input block should be placed after the MaxCore statement
Warning: RI is on but no J-basis has been assigned. Assigning Def2/J (nothing to worry about!)
================================================================================

----- Orbital basis set information -----
Your calculation utilizes the basis: def2-TZVP
   F. Weigend and R. Ahlrichs, Phys. Chem. Chem. Phys. 7, 3297 (2005).

----- AuxJ basis set information -----
Your calculation utilizes the auxiliary basis: def2/J
   H-Rn: F. Weigend, Phys. Chem. Chem. Phys. 8, 1057 (2006).
   Fr-Lr: K. Eichkorn, F. Weigend, O. Treutler, R. Ahlrichs; Theor. Chem. Acc. 97, 119 (1997).

================================================================================
                                        WARNINGS
                       Please study these warnings very carefully!
================================================================================


WARNING: Geometry Optimization
  ===> : Switching off AutoStart
         For restart on a previous wavefunction, please use MOREAD

================================================================================
                                       INPUT FILE
================================================================================
NAME = job.inp
|  1> # avogadro generated ORCA file
|  2> # C7H8O | Frequencies | revPBE/def2-TZVP
|  3> # 
|  4> ! Opt Freq revPBE def2-TZVP 
|  5> 
|  6> %maxcore 16384
|  7> 
|  8> %pal
|  9>    nprocs 1
| 10> end
| 11> 
| 12> * xyz 0 1
| 13>    C     -2.404980    0.574912   -0.000109
| 14>    C     -2.326273   -0.818739   -0.000127
| 15>    C      0.082689   -3.532877   -0.000256
| 16>    H      0.913833    1.292863   -0.000225
| 17>    C     -1.238297    1.335117   -0.000144
| 18>    C     -1.086225   -1.463181   -0.000181
| 19>    H     -0.142813   -4.603777   -0.000251
| 20>    H     -3.375573    1.063240   -0.000067
| 21>    C      0.080296   -0.696611   -0.000217
| 22>    H     -3.238904   -1.409551   -0.000099
| 23>    O     -1.152832   -2.829459   -0.000192
| 24>    H     -1.295460    2.420391   -0.000130
| 25>    H      0.661548   -3.314856   -0.903949
| 26>    H      0.661638   -3.314867    0.903382
| 27>    C      0.002561    0.700036   -0.000198
| 28>    H      1.064499   -1.152181   -0.000259
| 29> *
| 30> 
| 31> 
| 32> 
| 33>                          ****END OF INPUT****
================================================================================

                       *****************************
                       * Geometry Optimization Run *
                       *****************************

Geometry optimization settings:
Update method            Update   .... BFGS
Choice of coordinates    CoordSys .... (2022) Redundant Internals
Initial Hessian          InHess   .... Almloef's Model
Max. no of cycles        MaxIter  .... 50

Convergence Tolerances:
Energy Change            TolE     ....  5.0000e-06 Eh
Max. Gradient            TolMAXG  ....  3.0000e-04 Eh/bohr
RMS Gradient             TolRMSG  ....  1.0000e-04 Eh/bohr
Max. Displacement        TolMAXD  ....  4.0000e-03 bohr
RMS Displacement         TolRMSD  ....  2.0000e-03 bohr
Strict Convergence                .... False

------------------------------------------------------------------------------
                        ORCA OPTIMIZATION COORDINATE SETUP
------------------------------------------------------------------------------

The optimization will be done in redundant internal coordinates (2022)
Making redundant internal coordinates   ...  (2022 redundants) done
Evaluating the initial hessian          ...  (Almloef) done
Evaluating the coordinates              ...  done
Calculating the B-matrix                .... done
Calculating the G-matrix                .... done
The number of degrees of freedom        ....   70

    -----------------------------------------------------------------
                    Redundant Internal Coordinates


    -----------------------------------------------------------------
         Definition                    Initial Value    Approx d2E/dq
    -----------------------------------------------------------------
      1. B(C   1,C   0)                  1.3959         0.611464   
      2. B(C   4,C   0)                  1.3925         0.619081   
      3. B(C   5,C   1)                  1.3975         0.607802   
      4. B(H   6,C   2)                  1.0944         0.354346   
      5. B(H   7,C   0)                  1.0865         0.364740   
      6. B(C   8,C   5)                  1.3959         0.611509   
      7. B(H   9,C   1)                  1.0872         0.363854   
      8. B(O  10,C   5)                  1.3679         0.606923   
      9. B(O  10,C   2)                  1.4217         0.498031   
     10. B(H  11,C   4)                  1.0868         0.364387   
     11. B(H  12,C   2)                  1.0951         0.353400   
     12. B(H  13,C   2)                  1.0951         0.353400   
     13. B(C  14,C   8)                  1.3988         0.604902   
     14. B(C  14,C   4)                  1.3939         0.615828   
     15. B(C  14,H   3)                  1.0871         0.363911   
     16. B(H  15,C   8)                  1.0845         0.367413   
     17. A(C   1,C   0,H   7)          119.9404         0.352846   
     18. A(C   4,C   0,H   7)          120.2039         0.353586   
     19. A(C   1,C   0,C   4)          119.8557         0.432869   
     20. A(C   5,C   1,H   9)          119.6216         0.352342   
     21. A(C   0,C   1,H   9)          119.6855         0.352700   
     22. A(C   0,C   1,C   5)          120.6929         0.431441   
     23. A(O  10,C   2,H  12)          111.1549         0.337020   
     24. A(H   6,C   2,H  12)          107.6820         0.289252   
     25. A(H  12,C   2,H  13)          111.2136         0.289131   
     26. A(H   6,C   2,O  10)          107.7629         0.337170   
     27. A(O  10,C   2,H  13)          111.1551         0.337020   
     28. A(H   6,C   2,H  13)          107.6820         0.289252   
     29. A(C   0,C   4,H  11)          120.0730         0.353528   
     30. A(H  11,C   4,C  14)          120.1188         0.353213   
     31. A(C   0,C   4,C  14)          119.8082         0.433423   
     32. A(C   1,C   5,C   8)          119.2289         0.431447   
     33. A(C   8,C   5,O  10)          126.1016         0.428518   
     34. A(C   1,C   5,O  10)          114.6695         0.428051   
     35. A(C  14,C   8,H  15)          118.0243         0.352637   
     36. A(C   5,C   8,H  15)          121.8508         0.353286   
     37. A(C   5,C   8,C  14)          120.1249         0.431077   
     38. A(C   2,O  10,C   5)          116.8631         0.410438   
     39. A(C   4,C  14,C   8)          120.2894         0.431622   
     40. A(H   3,C  14,C   8)          119.8603         0.352067   
     41. A(H   3,C  14,C   4)          119.8503         0.353135   
     42. D(C   5,C   1,C   0,C   4)     -0.0001         0.025829   
     43. D(H   9,C   1,C   0,H   7)      0.0000         0.025829   
     44. D(H   9,C   1,C   0,C   4)    180.0000         0.025829   
     45. D(C   5,C   1,C   0,H   7)    180.0000         0.025829   
     46. D(H  11,C   4,C   0,C   1)   -180.0000         0.026516   
     47. D(H  11,C   4,C   0,H   7)     -0.0000         0.026516   
     48. D(C  14,C   4,C   0,C   1)      0.0001         0.026516   
     49. D(C  14,C   4,C   0,H   7)   -180.0000         0.026516   
     50. D(O  10,C   5,C   1,H   9)     -0.0001         0.025504   
     51. D(O  10,C   5,C   1,C   0)    179.9999         0.025504   
     52. D(C   8,C   5,C   1,H   9)    180.0000         0.025504   
     53. D(C   8,C   5,C   1,C   0)      0.0000         0.025504   
     54. D(H  15,C   8,C   5,C   1)    180.0000         0.025834   
     55. D(C  14,C   8,C   5,O  10)   -179.9999         0.025834   
     56. D(C  14,C   8,C   5,C   1)      0.0000         0.025834   
     57. D(H  15,C   8,C   5,O  10)      0.0000         0.025834   
     58. D(C   2,O  10,C   5,C   8)     -0.0005         0.026944   
     59. D(C   2,O  10,C   5,C   1)    179.9996         0.026944   
     60. D(C   5,O  10,C   2,H  13)     62.2278         0.019604   
     61. D(C   5,O  10,C   2,H  12)    -62.2285         0.019604   
     62. D(C   5,O  10,C   2,H   6)    179.9997         0.019604   
     63. D(C   4,C  14,C   8,H  15)   -180.0000         0.025247   
     64. D(C   4,C  14,C   8,C   5)     -0.0000         0.025247   
     65. D(H   3,C  14,C   8,H  15)     -0.0000         0.025247   
     66. D(H   3,C  14,C   8,C   5)    179.9999         0.025247   
     67. D(C   8,C  14,C   4,H  11)   -180.0000         0.026221   
     68. D(C   8,C  14,C   4,C   0)     -0.0000         0.026221   
     69. D(H   3,C  14,C   4,H  11)      0.0001         0.026221   
     70. D(H   3,C  14,C   4,C   0)   -180.0000         0.026221   
    -----------------------------------------------------------------

Number of atoms                         .... 16
Number of degrees of freedom            .... 70


         *************************************************************
         *                GEOMETRY OPTIMIZATION CYCLE   1            *
         *************************************************************
---------------------------------
CARTESIAN COORDINATES (ANGSTROEM)
---------------------------------
  C     -2.404980    0.574912   -0.000109
  C     -2.326273   -0.818739   -0.000127
  C      0.082689   -3.532877   -0.000256
  H      0.913833    1.292863   -0.000225
  C     -1.238297    1.335117   -0.000144
  C     -1.086225   -1.463181   -0.000181
  H     -0.142813   -4.603777   -0.000251
  H     -3.375573    1.063240   -0.000067
  C      0.080296   -0.696611   -0.000217
  H     -3.238904   -1.409551   -0.000099
  O     -1.152832   -2.829459   -0.000192
  H     -1.295460    2.420391   -0.000130
  H      0.661548   -3.314856   -0.903949
  H      0.661638   -3.314867    0.903382
  C      0.002561    0.700036   -0.000198
  H      1.064499   -1.152181   -0.000259

----------------------------
CARTESIAN COORDINATES (A.U.)
----------------------------
  NO LB      ZA    FRAG     MASS         X           Y           Z
   0 C     6.0000    0    12.011   -4.544754    1.086426   -0.000206
   1 C     6.0000    0    12.011   -4.396019   -1.547192   -0.000240
   2 C     6.0000    0    12.011    0.156260   -6.676170   -0.000484
   3 H     1.0000    0     1.008    1.726894    2.443157   -0.000425
   4 C     6.0000    0    12.011   -2.340042    2.523005   -0.000272
   5 C     6.0000    0    12.011   -2.052668   -2.765011   -0.000342
   6 H     1.0000    0     1.008   -0.269877   -8.699878   -0.000474
   7 H     1.0000    0     1.008   -6.378909    2.009232   -0.000127
   8 C     6.0000    0    12.011    0.151737   -1.316404   -0.000410
   9 H     1.0000    0     1.008   -6.120642   -2.663665   -0.000187
  10 O     8.0000    0    15.999   -2.178537   -5.346903   -0.000363
  11 H     1.0000    0     1.008   -2.448065    4.573876   -0.000246
  12 H     1.0000    0     1.008    1.250145   -6.264170   -1.708216
  13 H     1.0000    0     1.008    1.250315   -6.264191    1.707145
  14 C     6.0000    0    12.011    0.004840    1.322876   -0.000374
  15 H     1.0000    0     1.008    2.011612   -2.177307   -0.000489

--------------------------------
INTERNAL COORDINATES (ANGSTROEM)
--------------------------------
 C      0   0   0     0.000000000000     0.00000000     0.00000000
 C      1   0   0     1.395871735502     0.00000000     0.00000000
 C      2   1   0     3.629000277918   141.64137072     0.00000000
 H      1   2   3     3.395581449594    98.97419925     0.00000000
 C      1   2   3     1.392501657356   119.85570249     0.00000000
 C      2   1   3     1.397506542591   120.69287017     0.00000000
 H      3   2   1     1.094384741318   126.51781488   179.99954915
 H      1   2   3     1.086515075366   119.94040455   179.99978202
 C      6   2   1     1.395851284929   119.22889995     0.00000000
 H      2   1   3     1.087177153131   119.68553144   180.00022860
 O      6   2   1     1.367900605254   114.66950227   179.99994513
 H      5   1   2     1.086778387640   120.07300306   180.00000823
 H      3   2   1     1.095112750620   101.65460935   302.58893990
 H      3   2   1     1.095112752069   101.65480830    57.40999495
 C      4   1   2     1.087134081262    20.83940301     0.00000000
 H      9   6   2     1.084527349527   121.85082558   179.99998403

---------------------------
INTERNAL COORDINATES (A.U.)
---------------------------
 C      0   0   0     0.000000000000     0.00000000     0.00000000
 C      1   0   0     2.637815298181     0.00000000     0.00000000
 C      2   1   0     6.857816665189   141.64137072     0.00000000
 H      1   2   3     6.416719005156    98.97419925     0.00000000
 C      1   2   3     2.631446773434   119.85570249     0.00000000
 C      2   1   3     2.640904635860   120.69287017     0.00000000
 H      3   2   1     2.068087446233   126.51781488   179.99954915
 H      1   2   3     2.053215932818   119.94040455   179.99978202
 C      6   2   1     2.637776652197   119.22889995     0.00000000
 H      2   1   3     2.054467078473   119.68553144   180.00022860
 O      6   2   1     2.584957522355   114.66950227   179.99994513
 H      5   1   2     2.053713520904   120.07300306   180.00000823
 H      3   2   1     2.069463184437   101.65460935   302.58893990
 H      3   2   1     2.069463187176   101.65480830    57.40999495
 C      4   1   2     2.054385684438    20.83940301     0.00000000
 H      9   6   2     2.049459675354   121.85082558   179.99998403

---------------------
BASIS SET INFORMATION
---------------------
There are 3 groups of distinct atoms

 Group   1 Type C   : 11s6p2d1f contracted to 5s3p2d1f pattern {62111/411/11/1}
 Group   2 Type H   : 5s1p contracted to 3s1p pattern {311/1}
 Group   3 Type O   : 11s6p2d1f contracted to 5s3p2d1f pattern {62111/411/11/1}

Atom   0C    basis set group =>   1
Atom   1C    basis set group =>   1
Atom   2C    basis set group =>   1
Atom   3H    basis set group =>   2
Atom   4C    basis set group =>   1
Atom   5C    basis set group =>   1
Atom   6H    basis set group =>   2
Atom   7H    basis set group =>   2
Atom   8C    basis set group =>   1
Atom   9H    basis set group =>   2
Atom  10O    basis set group =>   3
Atom  11H    basis set group =>   2
Atom  12H    basis set group =>   2
Atom  13H    basis set group =>   2
Atom  14C    basis set group =>   1
Atom  15H    basis set group =>   2
---------------------------------
AUXILIARY/J BASIS SET INFORMATION
---------------------------------
There are 3 groups of distinct atoms

 Group   1 Type C   : 12s5p4d2f1g contracted to 6s4p3d1f1g pattern {711111/2111/211/2/1}
 Group   2 Type H   : 5s2p1d contracted to 3s1p1d pattern {311/2/1}
 Group   3 Type O   : 12s5p4d2f1g contracted to 6s4p3d1f1g pattern {711111/2111/211/2/1}

Atom   0C    basis set group =>   1
Atom   1C    basis set group =>   1
Atom   2C    basis set group =>   1
Atom   3H    basis set group =>   2
Atom   4C    basis set group =>   1
Atom   5C    basis set group =>   1
Atom   6H    basis set group =>   2
Atom   7H    basis set group =>   2
Atom   8C    basis set group =>   1
Atom   9H    basis set group =>   2
Atom  10O    basis set group =>   3
Atom  11H    basis set group =>   2
Atom  12H    basis set group =>   2
Atom  13H    basis set group =>   2
Atom  14C    basis set group =>   1
Atom  15H    basis set group =>   2
------------------------------------------------------------------------------
                             ORCA STARTUP CALCULATIONS
                           -- RI-GTO INTEGRALS CHOSEN --
------------------------------------------------------------------------------
------------------------------------------------------------------------------
                   ___                                                        
                  /   \      - P O W E R E D   B Y -                         
                 /     \                                                     
                 |  |  |   _    _      __       _____    __    __             
                 |  |  |  | |  | |    /  \     |  _  \  |  |  /  |          
                  \  \/   | |  | |   /    \    | | | |  |  | /  /          
                 / \  \   | |__| |  /  /\  \   | |_| |  |  |/  /          
                |  |  |   |  __  | /  /__\  \  |    /   |      \           
                |  |  |   | |  | | |   __   |  |    \   |  |\   \          
                \     /   | |  | | |  |  |  |  | |\  \  |  | \   \       
                 \___/    |_|  |_| |__|  |__|  |_| \__\ |__|  \__/        
                                                                              
                      - O R C A' S   B I G   F R I E N D -                    
                                      &                                       
                       - I N T E G R A L  F E E D E R -                       
                                                                              
 v1 FN, 2020, v2 2021, v3 2022-2024                                           
------------------------------------------------------------------------------


----------------------
SHARK INTEGRAL PACKAGE
----------------------

Number of atoms                             ...     16
Number of basis functions                   ...    296
Number of shells                            ...    120
Maximum angular momentum                    ...      3
Integral batch strategy                     ... SHARK/LIBINT Hybrid
RI-J (if used) integral strategy            ... SPLIT-RIJ (Revised 2003 algorithm where possible)
Printlevel                                  ...      1
Contraction scheme used                     ... SEGMENTED contraction
Prescreening option                         ... SCHWARTZ
   Thresh                                   ... 2.500e-11
   Tcut                                     ... 2.500e-12
   Tpresel                                  ... 2.500e-12 
Coulomb Range Separation                    ... NOT USED
Exchange Range Separation                   ... NOT USED
Multipole approximations                    ... NOT USED
Finite Nucleus Model                        ... NOT USED
CABS basis                                  ... NOT available
Auxiliary Coulomb fitting basis             ... AVAILABLE
   # of basis functions in Aux-J            ...    480
   # of shells in Aux-J                     ...    160
   Maximum angular momentum in Aux-J        ...      4
Auxiliary J/K fitting basis                 ... NOT available
Auxiliary Correlation fitting basis         ... NOT available
Auxiliary 'external' fitting basis          ... NOT available

Checking pre-screening integrals            ... done (  0.0 sec) Dimension = 120
   => SHARK Basis and OBASIS are compatible. Storing Pre-screening
Shell pair information
Shell pair cut-off parameter TPreSel        ...   2.5e-12
Total number of shell pairs                 ...      7260
Shell pairs after pre-screening             ...      6631
Total number of primitive shell pairs       ...     21936
Primitive shell pairs kept                  ...     15155
          la=0 lb=0:   1817 shell pairs
          la=1 lb=0:   1869 shell pairs
          la=1 lb=1:    500 shell pairs
          la=2 lb=0:    952 shell pairs
          la=2 lb=1:    492 shell pairs
          la=2 lb=2:    130 shell pairs
          la=3 lb=0:    472 shell pairs
          la=3 lb=1:    241 shell pairs
          la=3 lb=2:    122 shell pairs
          la=3 lb=3:     36 shell pairs

Checking whether 4 symmetric matrices of dimension 296 fit in memory
:Max Core in MB      =  16384.00
 MB in use           =      9.96
 MB left             =  16374.04
 MB needed           =      1.34
 Data fit in memory  = YES
Calculating RI/J V-Matrix + Cholesky decomp.... done (  0.0 sec)
Calculating Nuclear repulsion               ... done (  0.0 sec) ENN=    345.339944399895 Eh

Diagonalization of the overlap matrix:
Smallest eigenvalue                        ... 9.794e-06
Time for diagonalization                   ...    0.004 sec
Threshold for overlap eigenvalues          ... 1.000e-07
Number of eigenvalues below threshold      ... 0
Time for construction of square roots      ...    0.001 sec
Total time needed                          ...    0.005 sec

-------------------
DFT GRID GENERATION
-------------------

General Integration Accuracy     IntAcc      ... 4.388
Radial Grid Type                 RadialGrid  ... OptM3 with GC (2021)
Angular Grid (max. ang.)         AngularGrid ... 4 (Lebedev-302)
Angular grid pruning method      GridPruning ... 4 (adaptive)
Weight generation scheme         WeightScheme... mBecke (2022)
Basis function cutoff            BFCut       ... 1.0000e-11
Integration weight cutoff        WCut        ... 1.0000e-14
Partially contracted basis set               ... off
Rotationally invariant grid construction     ... off
Angular grids for H and He will be reduced by one unit

Total number of grid points                  ...    73912
Total number of batches                      ...     1163
Average number of points per batch           ...       63
Average number of grid points per atom       ...     4620
Grids setup in   0.3 sec
Initializing property integral containers    ... done (  0.0 sec)

SHARK setup successfully completed in   0.4 seconds

Maximum memory used throughout the entire STARTUP-calculation: 43.0 MB
-------------------------------------------------------------------------------
                                 ORCA GUESS
                   Start orbitals & Density for SCF / CASSCF
-------------------------------------------------------------------------------

------------
SCF SETTINGS
------------
Hamiltonian:
 Density Functional     Method          .... DFT(GTOs)
 Exchange Functional    Exchange        .... PBE
   PBE kappa parameter   XKappa         ....  1.245000
   PBE mue parameter    XMuePBE         ....  0.219520
 Correlation Functional Correlation     .... PBE
   PBE beta parameter  CBetaPBE         ....  0.066725
 LDA part of GGA corr.  LDAOpt          .... PW91-LDA
 Gradients option       PostSCFGGA      .... off
   NL short-range parameter             ....  3.700000
 RI-approximation to the Coulomb term is turned on
   Number of AuxJ basis functions       .... 480


General Settings:
 Integral files         IntName         .... job
 Hartree-Fock type      HFTyp           .... RHF
 Total Charge           Charge          ....    0
 Multiplicity           Mult            ....    1
 Number of Electrons    NEL             ....   58
 Basis Dimension        Dim             ....  296
 Nuclear Repulsion      ENuc            ....    345.3399443999 Eh

Convergence Acceleration:
 AO-DIIS                CNVDIIS         .... on
   Start iteration      DIISMaxIt       ....    12
   Startup error        DIISStart       ....  0.200000
   # of expansion vecs  DIISMaxEq       ....     5
   Bias factor          DIISBfac        ....   1.050
   Max. coefficient     DIISMaxC        ....  10.000
 MO-DIIS                CNVKDIIS        .... off
 Trust-Rad. Augm. Hess. CNVTRAH         .... auto
   Auto Start mean grad. ratio tolernc. ....  1.125000
   Auto Start start iteration           ....    50
   Auto Start num. interpolation iter.  ....    10
   Max. Number of Micro iterations      ....    24
   Max. Number of Macro iterations      .... Maxiter - #DIIS iter
   Number of Davidson start vectors     ....     2
   Converg. threshold    (grad. norm)   ....   1.000e-05
   Grad. Scal. Fac. for Micro threshold ....   0.100
   Minimum threshold for Micro iter.    ....   1.000e-02
   NR start threshold (gradient norm)   ....   1.000e-04
   Initial trust radius                 ....   0.400
   Minimum AH scaling param. (alpha)    ....   1.000
   Maximum AH scaling param. (alpha)    .... 1000.000
   Quad. conv. algorithm                .... NR
   White noise on init. David. guess    .... on
   Maximum white noise                  ....   0.010
   Pseudo random numbers                .... off
   Inactive MOs                         .... canonical
   Orbital update algorithm             .... Taylor
   Preconditioner                       .... Diag
   Full preconditioner red. dimension   ....   250
 SOSCF                 CNVSOSCF           .... on
   Start iteration     SOSCFMaxIt         ....   150
   Startup grad/error  SOSCFStart         ....  0.003300
   Hessian update      SOSCFHessUp        .... L-BFGS
   Autom. constraints  SOSCFAutoConstrain .... off
 Level Shifting         CNVShift        .... on
   Level shift para.    LevelShift      ....    0.2500
   Turn off err/grad.   ShiftErr        ....    0.0010
 Zerner damping         CNVZerner       .... off
 Static damping         CNVDamp         .... on
   Fraction old density DampFac         ....    0.7000
   Max. Damping (<1)    DampMax         ....    0.9800
   Min. Damping (>=0)   DampMin         ....    0.0000
   Turn off err/grad.   DampErr         ....    0.1000

SCF Procedure:
 Maximum # iterations   MaxIter         ....   125
 SCF integral mode      SCFMode         .... Direct
   Integral package                     .... SHARK and LIBINT hybrid scheme
 Reset frequency        DirectResetFreq ....    20
 Integral Threshold     Thresh          ....  2.500e-11 Eh
 Primitive CutOff       TCut            ....  2.500e-12 Eh

Convergence Tolerance:
 Convergence Check Mode ConvCheckMode   .... Total+1el-Energy
 Convergence forced     ConvForced      .... 0
 Energy Change          TolE            ....  1.000e-08 Eh
 1-El. energy change                    ....  1.000e-05 Eh
 Orbital Gradient       TolG            ....  1.000e-05
 Orbital Rotation angle TolX            ....  1.000e-05
 DIIS Error             TolErr          ....  5.000e-07

------------------------------
INITIAL GUESS: MODEL POTENTIAL
------------------------------
Loading Hartree-Fock densities                     ... done
Calculating cut-offs                               ... done
Initializing the effective Hamiltonian             ... done
Setting up the integral package (SHARK)            ... done
Starting the Coulomb interaction                   ... done (   0.1 sec)
Making the grid                                    ... done (   0.1 sec)
Mapping shells                                     ... done
Starting the XC term evaluation                    ... done (   0.2 sec)
  promolecular density results
     # of electrons  =     57.997385877
     EX              =    -46.620100163
     EC              =     -1.914398486
     EX+EC           =    -48.534498649
Transforming the Hamiltonian                       ... done (   0.0 sec)
Diagonalizing the Hamiltonian                      ... done (   0.0 sec)
Back transforming the eigenvectors                 ... done (   0.0 sec)
Now organizing SCF variables                       ... done
                      ------------------
                      INITIAL GUESS DONE (   0.4 sec)
                      ------------------
             **** ENERGY FILE WAS UPDATED (job.en.tmp) ****
Finished Guess after   0.5 sec
Maximum memory used throughout the entire GUESS-calculation: 25.3 MB

-------------------------------------------------------------------------------------------
                                      ORCA LEAN-SCF
                              memory conserving SCF solver
-------------------------------------------------------------------------------------------

----------------------------------------D-I-I-S--------------------------------------------
Iteration    Energy (Eh)           Delta-E    RMSDP     MaxDP     DIISErr   Damp  Time(sec)
-------------------------------------------------------------------------------------------
               ***  Starting incremental Fock matrix formation  ***
    1    -346.6364749123096090     0.00e+00  2.21e-03  1.18e-01  1.44e-01  0.700   1.0
    2    -346.7138444002160895    -7.74e-02  2.24e-03  1.33e-01  6.58e-02  0.700   0.8
                               ***Turning on AO-DIIS***
    3    -346.7426029617404311    -2.88e-02  1.04e-03  5.34e-02  2.33e-02  0.700   0.9
    4    -346.7592852568411672    -1.67e-02  1.40e-03  5.67e-02  1.01e-02  0.000   0.8
    5    -346.7964927344850139    -3.72e-02  7.10e-04  4.46e-02  8.52e-03  0.000   0.8
    6    -346.7968410200797962    -3.48e-04  2.14e-04  1.08e-02  3.89e-03  0.000   0.8
                              *** Initializing SOSCF ***
---------------------------------------S-O-S-C-F--------------------------------------
Iteration    Energy (Eh)           Delta-E    RMSDP     MaxDP     MaxGrad    Time(sec)
--------------------------------------------------------------------------------------
    7    -346.7968825999156479    -4.16e-05  9.56e-05  4.62e-03  9.40e-04     0.7
               *** Restarting incremental Fock matrix formation ***
    8    -346.7968853168918031    -2.72e-06  4.23e-05  1.93e-03  8.07e-05     0.9
    9    -346.7968852808155589     3.61e-08  1.08e-05  4.98e-04  8.88e-05     0.7
   10    -346.7968856560630684    -3.75e-07  1.23e-05  6.16e-04  5.27e-05     0.7
   11    -346.7968856020113435     5.41e-08  2.03e-06  5.43e-05  8.27e-05     0.7
   12    -346.7968856897215346    -8.77e-08  3.94e-06  1.42e-04  1.00e-05     0.6
   13    -346.7968856826757929     7.05e-09  1.06e-06  6.48e-05  1.50e-05     0.6
                 **** Energy Check signals convergence ****

               *****************************************************
               *                     SUCCESS                       *
               *           SCF CONVERGED AFTER  13 CYCLES          *
               *****************************************************

             **** ENERGY FILE WAS UPDATED (job.en.tmp) ****

----------------
TOTAL SCF ENERGY
----------------

Total Energy       :       -346.79688569143275 Eh           -9436.82302 eV

Components:
Nuclear Repulsion  :        345.33994439989453 Eh            9397.17763 eV
Electronic Energy  :       -692.13683009132728 Eh          -18834.00065 eV
One Electron Energy:      -1152.91003160696960 Eh          -31372.27690 eV
Two Electron Energy:        460.77320151564237 Eh           12538.27625 eV

Virial components:
Potential Energy   :       -692.20042593819664 Eh          -18835.73118 eV
Kinetic Energy     :        345.40354024676390 Eh            9398.90816 eV
Virial Ratio       :          2.00403396399375

DFT components:
N(Alpha)           :       29.000041970724 electrons
N(Beta)            :       29.000041970724 electrons
N(Total)           :       58.000083941449 electrons
E(X)               :      -47.597046056686 Eh       
E(C)               :       -1.916916897830 Eh       
E(XC)              :      -49.513962954516 Eh       

---------------
SCF CONVERGENCE
---------------

  Last Energy change         ...   -7.0457e-09  Tolerance :   1.0000e-08
  Last MAX-Density change    ...    6.4792e-05  Tolerance :   1.0000e-07
  Last RMS-Density change    ...    1.0579e-06  Tolerance :   5.0000e-09
  Last DIIS Error            ...    9.4031e-04  Tolerance :   5.0000e-07
  Last Orbital Gradient      ...    1.5027e-05  Tolerance :   1.0000e-05
  Last Orbital Rotation      ...    2.2112e-05  Tolerance :   1.0000e-05


----------------
ORBITAL ENERGIES
----------------

  NO   OCC          E(Eh)            E(eV) 
   0   2.0000     -18.796093      -511.4677 
   1   2.0000      -9.950727      -270.7731 
   2   2.0000      -9.944390      -270.6006 
   3   2.0000      -9.895447      -269.2688 
   4   2.0000      -9.893515      -269.2162 
   5   2.0000      -9.893294      -269.2102 
   6   2.0000      -9.888803      -269.0880 
   7   2.0000      -9.886013      -269.0121 
   8   2.0000      -0.979817       -26.6622 
   9   2.0000      -0.773981       -21.0611 
  10   2.0000      -0.686468       -18.6797 
  11   2.0000      -0.673996       -18.3404 
  12   2.0000      -0.628590       -17.1048 
  13   2.0000      -0.547692       -14.9034 
  14   2.0000      -0.530966       -14.4483 
  15   2.0000      -0.483395       -13.1538 
  16   2.0000      -0.432852       -11.7785 
  17   2.0000      -0.425596       -11.5811 
  18   2.0000      -0.420018       -11.4293 
  19   2.0000      -0.395116       -10.7517 
  20   2.0000      -0.373410       -10.1610 
  21   2.0000      -0.362826        -9.8730 
  22   2.0000      -0.337425        -9.1818 
  23   2.0000      -0.317869        -8.6497 
  24   2.0000      -0.309955        -8.4343 
  25   2.0000      -0.284236        -7.7345 
  26   2.0000      -0.281622        -7.6633 
  27   2.0000      -0.225775        -6.1436 
  28   2.0000      -0.194719        -5.2986 
  29   0.0000      -0.037762        -1.0276 
  30   0.0000      -0.021803        -0.5933 
  31   0.0000       0.023000         0.6259 
  32   0.0000       0.036780         1.0008 
  33   0.0000       0.054304         1.4777 
  34   0.0000       0.065230         1.7750 
  35   0.0000       0.079220         2.1557 
  36   0.0000       0.084438         2.2977 
  37   0.0000       0.095052         2.5865 
  38   0.0000       0.104969         2.8563 
  39   0.0000       0.110666         3.0114 
*Only the first 10 virtual orbitals were printed.

                    ********************************
                    * MULLIKEN POPULATION ANALYSIS *
                    ********************************

-----------------------
MULLIKEN ATOMIC CHARGES
-----------------------
   0 C :   -0.063903
   1 C :   -0.172376
   2 C :   -0.190426
   3 H :    0.086828
   4 C :   -0.102358
   5 C :    0.292753
   6 H :    0.126255
   7 H :    0.083071
   8 C :   -0.222653
   9 H :    0.075339
  10 O :   -0.196458
  11 H :    0.079428
  12 H :    0.111290
  13 H :    0.111291
  14 C :   -0.106809
  15 H :    0.088729
Sum of atomic charges:    0.0000000

--------------------------------
MULLIKEN REDUCED ORBITAL CHARGES
--------------------------------
  0 C s       :     3.154047  s :     3.154047
      pz      :     0.963113  p :     2.811429
      px      :     0.931514
      py      :     0.916801
      dz2     :     0.004447  d :     0.091372
      dxz     :     0.008291
      dyz     :     0.020747
      dx2y2   :     0.026350
      dxy     :     0.031537
      f0      :     0.001486  f :     0.007055
      f+1     :     0.000614
      f-1     :     0.000542
      f+2     :     0.000855
      f-2     :     0.000532
      f+3     :     0.002197
      f-3     :     0.000829

  1 C s       :     3.254338  s :     3.254338
      pz      :     1.009608  p :     2.829865
      px      :     0.924082
      py      :     0.896175
      dz2     :     0.004518  d :     0.080985
      dxz     :     0.009829
      dyz     :     0.016436
      dx2y2   :     0.020064
      dxy     :     0.030138
      f0      :     0.001523  f :     0.007189
      f+1     :     0.000652
      f-1     :     0.000607
      f+2     :     0.000943
      f-2     :     0.000401
      f+3     :     0.002203
      f-3     :     0.000860

  2 C s       :     3.223312  s :     3.223312
      pz      :     1.064501  p :     2.866115
      px      :     0.794565
      py      :     1.007049
      dz2     :     0.006051  d :     0.093773
      dxz     :     0.038750
      dyz     :     0.008184
      dx2y2   :     0.027363
      dxy     :     0.013425
      f0      :     0.001053  f :     0.007226
      f+1     :     0.001194
      f-1     :     0.000292
      f+2     :     0.000181
      f-2     :     0.001416
      f+3     :     0.001876
      f-3     :     0.001214

  3 H s       :     0.891392  s :     0.891392
      pz      :     0.005076  p :     0.021780
      px      :     0.010110
      py      :     0.006595

  4 C s       :     3.160124  s :     3.160124
      pz      :     0.996549  p :     2.845680
      px      :     0.924035
      py      :     0.925096
      dz2     :     0.004572  d :     0.089535
      dxz     :     0.021428
      dyz     :     0.004972
      dx2y2   :     0.038222
      dxy     :     0.020342
      f0      :     0.001506  f :     0.007019
      f+1     :     0.000517
      f-1     :     0.000648
      f+2     :     0.000180
      f-2     :     0.001125
      f+3     :     0.002219
      f-3     :     0.000823

  5 C s       :     2.983829  s :     2.983829
      pz      :     0.939315  p :     2.538741
      px      :     0.871888
      py      :     0.727538
      dz2     :     0.006358  d :     0.169767
      dxz     :     0.024332
      dyz     :     0.046951
      dx2y2   :     0.042502
      dxy     :     0.049623
      f0      :     0.002311  f :     0.014910
      f+1     :     0.000649
      f-1     :     0.001183
      f+2     :     0.002506
      f-2     :     0.001156
      f+3     :     0.005204
      f-3     :     0.001902

  6 H s       :     0.853403  s :     0.853403
      pz      :     0.004819  p :     0.020343
      px      :     0.003439
      py      :     0.012084

  7 H s       :     0.895133  s :     0.895133
      pz      :     0.005025  p :     0.021796
      px      :     0.011012
      py      :     0.005759

  8 C s       :     3.234400  s :     3.234400
      pz      :     1.045816  p :     2.900537
      px      :     0.926969
      py      :     0.927752
      dz2     :     0.005378  d :     0.080753
      dxz     :     0.007709
      dyz     :     0.018039
      dx2y2   :     0.022133
      dxy     :     0.027494
      f0      :     0.001505  f :     0.006962
      f+1     :     0.000655
      f-1     :     0.000567
      f+2     :     0.000795
      f-2     :     0.000506
      f+3     :     0.002016
      f-3     :     0.000918

  9 H s       :     0.902701  s :     0.902701
      pz      :     0.005285  p :     0.021960
      px      :     0.010101
      py      :     0.006575

 10 O s       :     3.734352  s :     3.734352
      pz      :     1.733587  p :     4.417224
      px      :     1.433514
      py      :     1.250123
      dz2     :     0.004712  d :     0.042846
      dxz     :     0.004658
      dyz     :     0.007174
      dx2y2   :     0.015133
      dxy     :     0.011169
      f0      :     0.000277  f :     0.002036
      f+1     :     0.000215
      f-1     :     0.000339
      f+2     :     0.000230
      f-2     :     0.000098
      f+3     :     0.000438
      f-3     :     0.000439

 11 H s       :     0.898653  s :     0.898653
      pz      :     0.005358  p :     0.021919
      px      :     0.004006
      py      :     0.012555

 12 H s       :     0.868689  s :     0.868689
      pz      :     0.009630  p :     0.020021
      px      :     0.005954
      py      :     0.004438

 13 H s       :     0.868688  s :     0.868688
      pz      :     0.009629  p :     0.020021
      px      :     0.005954
      py      :     0.004438

 14 C s       :     3.171715  s :     3.171715
      pz      :     0.965368  p :     2.835769
      px      :     0.934994
      py      :     0.935407
      dz2     :     0.004413  d :     0.092167
      dxz     :     0.009899
      dyz     :     0.020129
      dx2y2   :     0.021866
      dxy     :     0.035860
      f0      :     0.001492  f :     0.007158
      f+1     :     0.000600
      f-1     :     0.000567
      f+2     :     0.001105
      f-2     :     0.000333
      f+3     :     0.002200
      f-3     :     0.000860

 15 H s       :     0.888671  s :     0.888671
      pz      :     0.005747  p :     0.022600
      px      :     0.011035
      py      :     0.005817



                     *******************************
                     * LOEWDIN POPULATION ANALYSIS *
                     *******************************

----------------------
LOEWDIN ATOMIC CHARGES
----------------------
   0 C :   -0.140237
   1 C :   -0.115358
   2 C :   -0.331865
   3 H :    0.140700
   4 C :   -0.160030
   5 C :   -0.257019
   6 H :    0.113185
   7 H :    0.140916
   8 C :   -0.144050
   9 H :    0.145050
  10 O :    0.254184
  11 H :    0.138518
  12 H :    0.106256
  13 H :    0.106256
  14 C :   -0.140505
  15 H :    0.143999

-------------------------------
LOEWDIN REDUCED ORBITAL CHARGES
-------------------------------
  0 C s       :     2.769654  s :     2.769654
      pz      :     0.883410  p :     2.937494
      px      :     1.004901
      py      :     1.049183
      dz2     :     0.025446  d :     0.390074
      dxz     :     0.026331
      dyz     :     0.071103
      dx2y2   :     0.126084
      dxy     :     0.141110
      f0      :     0.002985  f :     0.043015
      f+1     :     0.003467
      f-1     :     0.004132
      f+2     :     0.005819
      f-2     :     0.003727
      f+3     :     0.015012
      f-3     :     0.007874

  1 C s       :     2.766430  s :     2.766430
      pz      :     0.913717  p :     2.941221
      px      :     0.990652
      py      :     1.036852
      dz2     :     0.026480  d :     0.365688
      dxz     :     0.030478
      dyz     :     0.055604
      dx2y2   :     0.104709
      dxy     :     0.148417
      f0      :     0.003217  f :     0.042018
      f+1     :     0.003702
      f-1     :     0.004064
      f+2     :     0.006366
      f-2     :     0.002563
      f+3     :     0.014024
      f-3     :     0.008082

  2 C s       :     2.864542  s :     2.864542
      pz      :     1.102613  p :     3.029601
      px      :     0.901479
      py      :     1.025508
      dz2     :     0.047875  d :     0.383809
      dxz     :     0.134982
      dyz     :     0.016547
      dx2y2   :     0.119964
      dxy     :     0.064442
      f0      :     0.006138  f :     0.053913
      f+1     :     0.006991
      f-1     :     0.004162
      f+2     :     0.002480
      f-2     :     0.009686
      f+3     :     0.013060
      f-3     :     0.011396

  3 H s       :     0.800554  s :     0.800554
      pz      :     0.013671  p :     0.058746
      px      :     0.027173
      py      :     0.017902

  4 C s       :     2.768076  s :     2.768076
      pz      :     0.912394  p :     2.963718
      px      :     1.066668
      py      :     0.984656
      dz2     :     0.025985  d :     0.385304
      dxz     :     0.075525
      dyz     :     0.012874
      dx2y2   :     0.166877
      dxy     :     0.104044
      f0      :     0.003123  f :     0.042931
      f+1     :     0.004418
      f-1     :     0.003278
      f+2     :     0.001337
      f-2     :     0.007474
      f+3     :     0.015367
      f-3     :     0.007935

  5 C s       :     2.716605  s :     2.716605
      pz      :     0.867458  p :     2.774130
      px      :     1.078299
      py      :     0.828374
      dz2     :     0.046310  d :     0.672508
      dxz     :     0.079434
      dyz     :     0.132626
      dx2y2   :     0.218719
      dxy     :     0.195418
      f0      :     0.005983  f :     0.093776
      f+1     :     0.004618
      f-1     :     0.009097
      f+2     :     0.016784
      f-2     :     0.007642
      f+3     :     0.033347
      f-3     :     0.016305

  6 H s       :     0.826482  s :     0.826482
      pz      :     0.013718  p :     0.060333
      px      :     0.010616
      py      :     0.035999

  7 H s       :     0.800377  s :     0.800377
      pz      :     0.013516  p :     0.058708
      px      :     0.029483
      py      :     0.015708

  8 C s       :     2.763356  s :     2.763356
      pz      :     0.941694  p :     2.970734
      px      :     0.988162
      py      :     1.040877
      dz2     :     0.026414  d :     0.367848
      dxz     :     0.024636
      dyz     :     0.062120
      dx2y2   :     0.114570
      dxy     :     0.140108
      f0      :     0.003140  f :     0.042112
      f+1     :     0.003644
      f-1     :     0.004174
      f+2     :     0.005420
      f-2     :     0.003680
      f+3     :     0.014006
      f-3     :     0.008049

  9 H s       :     0.795212  s :     0.795212
      pz      :     0.014413  p :     0.059738
      px      :     0.027448
      py      :     0.017877

 10 O s       :     3.256677  s :     3.256677
      pz      :     1.613433  p :     4.369877
      px      :     1.451574
      py      :     1.304870
      dz2     :     0.010678  d :     0.112595
      dxz     :     0.010871
      dyz     :     0.018291
      dx2y2   :     0.038324
      dxy     :     0.034432
      f0      :     0.000713  f :     0.006668
      f+1     :     0.000363
      f-1     :     0.000760
      f+2     :     0.000845
      f-2     :     0.000428
      f+3     :     0.002196
      f-3     :     0.001363

 11 H s       :     0.802310  s :     0.802310
      pz      :     0.014432  p :     0.059173
      px      :     0.011203
      py      :     0.033537

 12 H s       :     0.831555  s :     0.831555
      pz      :     0.030870  p :     0.062189
      px      :     0.017981
      py      :     0.013338

 13 H s       :     0.831555  s :     0.831555
      pz      :     0.030868  p :     0.062189
      px      :     0.017983
      py      :     0.013338

 14 C s       :     2.770287  s :     2.770287
      pz      :     0.886580  p :     2.936534
      px      :     1.013437
      py      :     1.036517
      dz2     :     0.025299  d :     0.390904
      dxz     :     0.032417
      dyz     :     0.066603
      dx2y2   :     0.113172
      dxy     :     0.153413
      f0      :     0.002979  f :     0.042781
      f+1     :     0.003547
      f-1     :     0.004034
      f+2     :     0.007155
      f-2     :     0.002373
      f+3     :     0.014903
      f-3     :     0.007790

 15 H s       :     0.794535  s :     0.794535
      pz      :     0.015723  p :     0.061466
      px      :     0.030179
      py      :     0.015565



                      *****************************
                      * MAYER POPULATION ANALYSIS *
                      *****************************

  NA   - Mulliken gross atomic population
  ZA   - Total nuclear charge
  QA   - Mulliken gross atomic charge
  VA   - Mayer's total valence
  BVA  - Mayer's bonded valence
  FA   - Mayer's free valence

  ATOM       NA         ZA         QA         VA         BVA        FA
  0 C      6.0639     6.0000    -0.0639     3.9493     3.9493     0.0000
  1 C      6.1724     6.0000    -0.1724     3.9724     3.9724     0.0000
  2 C      6.1904     6.0000    -0.1904     3.9152     3.9152    -0.0000
  3 H      0.9132     1.0000     0.0868     0.9662     0.9662     0.0000
  4 C      6.1024     6.0000    -0.1024     3.9793     3.9793     0.0000
  5 C      5.7072     6.0000     0.2928     3.8898     3.8898     0.0000
  6 H      0.8737     1.0000     0.1263     0.9649     0.9649    -0.0000
  7 H      0.9169     1.0000     0.0831     0.9638     0.9638     0.0000
  8 C      6.2227     6.0000    -0.2227     3.8849     3.8849     0.0000
  9 H      0.9247     1.0000     0.0753     0.9912     0.9912     0.0000
 10 O      8.1965     8.0000    -0.1965     2.2303     2.2303    -0.0000
 11 H      0.9206     1.0000     0.0794     0.9653     0.9653     0.0000
 12 H      0.8887     1.0000     0.1113     0.9672     0.9672    -0.0000
 13 H      0.8887     1.0000     0.1113     0.9672     0.9672     0.0000
 14 C      6.1068     6.0000    -0.1068     3.9733     3.9733     0.0000
 15 H      0.9113     1.0000     0.0887     0.9908     0.9908    -0.0000

  Mayer bond orders larger than 0.100000
B(  0-C ,  1-C ) :   1.4423 B(  0-C ,  4-C ) :   1.3986 B(  0-C ,  7-H ) :   0.9726 
B(  1-C ,  5-C ) :   1.3596 B(  1-C ,  9-H ) :   0.9820 B(  2-C ,  6-H ) :   0.9680 
B(  2-C , 10-O ) :   0.9799 B(  2-C , 12-H ) :   0.9617 B(  2-C , 13-H ) :   0.9617 
B(  3-H , 14-C ) :   0.9583 B(  4-C , 11-H ) :   0.9679 B(  4-C , 14-C ) :   1.4365 
B(  5-C ,  8-C ) :   1.3012 B(  5-C , 10-O ) :   1.1599 B(  8-C , 14-C ) :   1.3858 
B(  8-C , 15-H ) :   0.9598 

-------
TIMINGS
-------

Total SCF time: 0 days 0 hours 0 min 10 sec 

Total time                  ....      10.628 sec
Sum of individual times     ....      10.005 sec  ( 94.1%)

SCF preparation             ....       0.022 sec  (  0.2%)
Fock matrix formation       ....       9.873 sec  ( 92.9%)
  Startup                   ....       0.002 sec  (  0.0% of F)
  Split-RI-J                ....       3.086 sec  ( 31.3% of F)
  XC integration            ....       7.373 sec  ( 74.7% of F)
    Basis function eval.    ....       2.342 sec  ( 31.8% of XC)
    Density eval.           ....       1.282 sec  ( 17.4% of XC)
    XC-Functional eval.     ....       0.158 sec  (  2.1% of XC)
    XC-Potential eval.      ....       3.447 sec  ( 46.8% of XC)
Diagonalization             ....       0.000 sec  (  0.0%)
Density matrix formation    ....       0.009 sec  (  0.1%)
Total Energy calculation    ....       0.008 sec  (  0.1%)
Population analysis         ....       0.005 sec  (  0.0%)
Orbital Transformation      ....       0.012 sec  (  0.1%)
Orbital Orthonormalization  ....       0.000 sec  (  0.0%)
DIIS solution               ....       0.055 sec  (  0.5%)
SOSCF solution              ....       0.020 sec  (  0.2%)
Finished LeanSCF after  10.6 sec

Maximum memory used throughout the entire LEANSCF-calculation: 31.8 MB

------------------------------------------------------------------------------
                         ORCA PROPERTY INTEGRAL CALCULATIONS
------------------------------------------------------------------------------

GBWName                                   ... job.gbw
Number of atoms                           ...     16
Number of basis functions                 ...    296
Max core memory                           ...  16384 MB

Dipole integrals                          ... YES
Quadrupole integrals                      ...  NO
Linear momentum integrals                 ...  NO
Angular momentum integrals                ...  NO
Higher moments length integrals           ...  NO
Higher moments velocity integrals         ...  NO
Kinetic energy integrals                  ...  NO
GIAO right hand sides                     ...  NO
GIAO dipole derivative integrals          ...  NO
SOC integrals                             ...  NO
EPR diamagnetic integrals (GIAO)          ...  NO
EPR gauge integrals                       ...  NO
Field gradient integrals                  ...  NO (   0 nuclei)
Spin-dipole/Fermi contact integrals       ...  NO (   0 nuclei)
Contact density integrals                 ...  NO (   0 nuclei)
Nucleus-orbit integrals                   ...  NO (   0 nuclei)
Geometric perturbations                   ...  NO (  16 nuclei)

Choice of electric origin   ... Center of mass
Position of electric origin ... ( -1.8522, -1.7688, -0.0003) 
Choice of magnetic origin   ... GIAO
Position of magnetic origin ... (  0.0000,  0.0000,  0.0000) 

Calculating integrals                     ... Electric Dipole (Length)     done (  0.0 sec)

Property integrals calculated in   0.0 sec

Maximum memory used throughout the entire PROPINT-calculation: 25.9 MB

-------------------------   --------------------
FINAL SINGLE POINT ENERGY      -346.796885691433
-------------------------   --------------------

------------------------------------------------------------------------------
                         ORCA SCF GRADIENT CALCULATION
------------------------------------------------------------------------------

Nuc. rep. gradient        (SHARK) ... done (  0.0 sec)
HCore & Overlap gradient  (SHARK) ... done (  0.2 sec)
Split-RIJ-J gradient      (SHARK) ... done (  1.1 sec)
XC gradient                       ... done (  3.3 sec)

------------------
CARTESIAN GRADIENT
------------------

   1   C   :    0.000173674    0.006700682    0.000000008
   2   C   :    0.010774202   -0.007648767   -0.000000471
   3   C   :   -0.000525810    0.005819990    0.000000114
   4   H   :   -0.003328035   -0.000740700    0.000000146
   5   C   :   -0.003802337   -0.007954102    0.000000110
   6   C   :    0.005588749    0.001002743   -0.000000235
   7   H   :    0.004577459    0.001575525   -0.000000198
   8   H   :    0.003584960   -0.000920955   -0.000000139
   9   C   :   -0.010327549   -0.001224583    0.000000345
  10   H   :    0.001327546    0.003661026   -0.000000011
  11   O   :    0.000527268    0.005073828   -0.000000058
  12   H   :   -0.000095678   -0.003642574   -0.000000052
  13   H   :   -0.004934213   -0.002489206    0.002530048
  14   H   :   -0.004934245   -0.002489226   -0.002529619
  15   C   :    0.004044611   -0.000231719   -0.000000163
  16   H   :   -0.002650602    0.003508039    0.000000175

Difference to translation invariance:
           :    0.0000000000    0.0000000000   -0.0000000000

Difference to rotation invariance:
           :    0.0000000996    0.0000000823   -0.0000663040

Norm of the Cartesian gradient     ...    0.0261656865
RMS gradient                       ...    0.0037766915
MAX gradient                       ...    0.0107742019

-------
TIMINGS
-------

Total SCF gradient time     ....        4.604 sec

Densities                   ....       0.000 sec  (  0.0%)
One electron gradient       ....       0.156 sec  (  3.4%)
RI-J Coulomb gradient       ....       1.116 sec  ( 24.2%)
XC gradient                 ....       3.331 sec  ( 72.4%)

Maximum memory used throughout the entire SCFGRAD-calculation: 41.6 MB
------------------------------------------------------------------------------
                         ORCA GEOMETRY RELAXATION STEP
------------------------------------------------------------------------------

Reading the OPT-File                    .... done
Getting information on internals        .... done
Copying old internal coords+grads       .... done
Making the new internal coordinates     .... (2022 redundants) done
Validating the new internal coordinates .... (2022 redundants) done
Calculating the B-matrix                .... done
Calculating the G,G- and P matrices     .... done
Transforming gradient to internals      .... done
Projecting the internal gradient        .... done
Number of atoms                         ....  16
Number of internal coordinates          ....  70
Current Energy                          ....  -346.796885691 Eh
Current gradient norm                   ....     0.026165686 Eh/bohr
Maximum allowed component of the step   ....  0.300
Current trust radius                    ....  0.300
Evaluating the initial hessian          ....  (Almloef) done
Projecting the Hessian                  .... done
Forming the augmented Hessian           .... done
Diagonalizing the augmented Hessian     .... done
Last element of RFO vector              ....  0.998140813
Lowest eigenvalues of augmented Hessian:
 -0.001614224  0.019604163  0.025492607  0.025600503  0.025674070
Length of the computed step             ....  0.061063654
The final length of the internal step   ....  0.061063654
Converting the step to Cartesian space:
 Initial RMS(Int)=    0.0072985026
Transforming coordinates:
 Iter   0:  RMS(Cart)=    0.0159405269 RMS(Int)=    1.6792676366
done
Storing new coordinates                 .... done

                                .--------------------.
          ----------------------|Geometry convergence|-------------------------
          Item                value                   Tolerance       Converged
          ---------------------------------------------------------------------
          RMS gradient        0.0032907533            0.0001000000      NO
          MAX gradient        0.0102862560            0.0003000000      NO
          RMS step            0.0072985026            0.0020000000      NO
          MAX step            0.0169884574            0.0040000000      NO
          -------------------------------------------------------------------------
          ........................................................
          Max(Bonds)      0.0090      Max(Angles)    0.96
          Max(Dihed)        0.29      Max(Improp)    0.00
          ---------------------------------------------------------------------

The optimization has not yet converged - more geometry cycles are needed


    ---------------------------------------------------------------------------
                         Redundant Internal Coordinates
                            (Angstroem and degrees)

        Definition                    Value    dE/dq     Step     New-Value
    ----------------------------------------------------------------------------
     1. B(C   1,C   0)                1.3959 -0.001595  0.0014    1.3972   
     2. B(C   4,C   0)                1.3925 -0.010229  0.0087    1.4012   
     3. B(C   5,C   1)                1.3975 -0.010286  0.0090    1.4065   
     4. B(H   6,C   2)                1.0944 -0.002485  0.0037    1.0981   
     5. B(H   7,C   0)                1.0865 -0.003616  0.0052    1.0917   
     6. B(C   8,C   5)                1.3959 -0.008917  0.0078    1.4036   
     7. B(H   9,C   1)                1.0872 -0.003104  0.0045    1.0917   
     8. B(O  10,C   5)                1.3679 -0.007226  0.0063    1.3742   
     9. B(O  10,C   2)                1.4217 -0.006248  0.0066    1.4283   
    10. B(H  11,C   4)                1.0868 -0.003633  0.0053    1.0920   
    11. B(H  12,C   2)                1.0951 -0.005191  0.0077    1.1029   
    12. B(H  13,C   2)                1.0951 -0.005191  0.0077    1.1029   
    13. B(C  14,C   8)                1.3988 -0.005213  0.0045    1.4034   
    14. B(C  14,C   4)                1.3939 -0.004836  0.0041    1.3980   
    15. B(C  14,H   3)                1.0871 -0.003194  0.0046    1.0918   
    16. B(H  15,C   8)                1.0845 -0.003879  0.0056    1.0901   
    17. A(C   1,C   0,H   7)          119.94  0.002017   -0.30    119.64   
    18. A(C   4,C   0,H   7)          120.20  0.000400   -0.03    120.17   
    19. A(C   1,C   0,C   4)          119.86 -0.002417    0.33    120.19   
    20. A(C   5,C   1,H   9)          119.62  0.001522   -0.27    119.35   
    21. A(C   0,C   1,H   9)          119.69 -0.003308    0.51    120.20   
    22. A(C   0,C   1,C   5)          120.69  0.001786   -0.24    120.45   
    23. A(O  10,C   2,H  12)          111.15 -0.001956    0.30    111.45   
    24. A(H   6,C   2,H  12)          107.68 -0.002678    0.58    108.26   
    25. A(H  12,C   2,H  13)          111.21  0.003393   -0.78    110.43   
    26. A(H   6,C   2,O  10)          107.76  0.005917   -0.96    106.81   
    27. A(O  10,C   2,H  13)          111.16 -0.001956    0.30    111.45   
    28. A(H   6,C   2,H  13)          107.68 -0.002678    0.58    108.26   
    29. A(C   0,C   4,H  11)          120.07 -0.001342    0.20    120.28   
    30. A(H  11,C   4,C  14)          120.12 -0.000750    0.11    120.23   
    31. A(C   0,C   4,C  14)          119.81  0.002092   -0.31    119.50   
    32. A(C   1,C   5,C   8)          119.23 -0.000907    0.14    119.37   
    33. A(C   8,C   5,O  10)          126.10  0.005181   -0.70    125.40   
    34. A(C   1,C   5,O  10)          114.67 -0.004273    0.56    115.23   
    35. A(C  14,C   8,H  15)          118.02 -0.003102    0.48    118.50   
    36. A(C   5,C   8,H  15)          121.85  0.001142   -0.21    121.64   
    37. A(C   5,C   8,C  14)          120.12  0.001959   -0.26    119.86   
    38. A(C   2,O  10,C   5)          116.86 -0.005135    0.71    117.58   
    39. A(C   4,C  14,C   8)          120.29 -0.002513    0.35    120.64   
    40. A(H   3,C  14,C   8)          119.86  0.002484   -0.37    119.49   
    41. A(H   3,C  14,C   4)          119.85  0.000029    0.03    119.88   
    42. D(C   5,C   1,C   0,C   4)     -0.00 -0.000000    0.00      0.00   
    43. D(H   9,C   1,C   0,H   7)      0.00  0.000000   -0.00     -0.00   
    44. D(H   9,C   1,C   0,C   4)    180.00 -0.000000    0.00    180.00   
    45. D(C   5,C   1,C   0,H   7)    180.00 -0.000000    0.00    180.00   
    46. D(H  11,C   4,C   0,C   1)   -180.00  0.000000   -0.00   -180.00   
    47. D(H  11,C   4,C   0,H   7)     -0.00 -0.000000    0.00     -0.00   
    48. D(C  14,C   4,C   0,C   1)      0.00  0.000000   -0.00      0.00   
    49. D(C  14,C   4,C   0,H   7)   -180.00  0.000000   -0.00   -180.00   
    50. D(O  10,C   5,C   1,H   9)     -0.00 -0.000000    0.00     -0.00   
    51. D(O  10,C   5,C   1,C   0)    180.00  0.000000   -0.00    180.00   
    52. D(C   8,C   5,C   1,H   9)    180.00 -0.000000    0.00    180.00   
    53. D(C   8,C   5,C   1,C   0)      0.00  0.000000   -0.00     -0.00   
    54. D(H  15,C   8,C   5,C   1)    180.00 -0.000000    0.00    180.00   
    55. D(C  14,C   8,C   5,O  10)   -180.00  0.000000   -0.00   -180.00   
    56. D(C  14,C   8,C   5,C   1)      0.00  0.000000   -0.00      0.00   
    57. D(H  15,C   8,C   5,O  10)      0.00 -0.000000    0.00      0.00   
    58. D(C   2,O  10,C   5,C   8)     -0.00 -0.000000    0.00     -0.00   
    59. D(C   2,O  10,C   5,C   1)    180.00 -0.000000    0.00    180.00   
    60. D(C   5,O  10,C   2,H  13)     62.23  0.000768   -0.29     61.94   
    61. D(C   5,O  10,C   2,H  12)    -62.23 -0.000768    0.29    -61.94   
    62. D(C   5,O  10,C   2,H   6)    180.00  0.000000    0.00    180.00   
    63. D(C   4,C  14,C   8,H  15)   -180.00  0.000000   -0.00   -180.00   
    64. D(C   4,C  14,C   8,C   5)     -0.00 -0.000000    0.00      0.00   
    65. D(H   3,C  14,C   8,H  15)     -0.00  0.000000   -0.00     -0.00   
    66. D(H   3,C  14,C   8,C   5)    180.00 -0.000000    0.00    180.00   
    67. D(C   8,C  14,C   4,H  11)   -180.00  0.000000   -0.00   -180.00   
    68. D(C   8,C  14,C   4,C   0)     -0.00  0.000000   -0.00     -0.00   
    69. D(H   3,C  14,C   4,H  11)      0.00  0.000000   -0.00      0.00   
    70. D(H   3,C  14,C   4,C   0)   -180.00  0.000000   -0.00   -180.00   
    ----------------------------------------------------------------------------

Geometry step timings:
Preparation and reading OPT file:      0.000 s ( 1.051 %)
Internal coordinates            :      0.000 s (19.852 %)
B/P matrices and projection     :      0.000 s (22.573 %)
Hessian update/contruction      :      0.000 s (15.152 %)
Making the step                 :      0.000 s (18.120 %)
Converting the step to Cartesian:      0.000 s ( 1.608 %)
Storing new data                :      0.000 s ( 2.907 %)
Checking convergence            :      0.000 s ( 2.165 %)
Final printing                  :      0.000 s (16.574 %)
Total time                      :      0.002 s

Time for energy+gradient        :     16.392 s
Time for complete geometry iter :     16.431 s

         *************************************************************
         *                GEOMETRY OPTIMIZATION CYCLE   2            *
         *************************************************************
---------------------------------
CARTESIAN COORDINATES (ANGSTROEM)
---------------------------------
  C     -2.412855    0.581945   -0.000107
  C     -2.340452   -0.813426   -0.000127
  C      0.092434   -3.546084   -0.000255
  H      0.919879    1.297164   -0.000228
  C     -1.239836    1.348295   -0.000143
  C     -1.092669   -1.462478   -0.000183
  H     -0.154980   -4.615928   -0.000254
  H     -3.388406    1.072038   -0.000063
  C      0.082492   -0.694946   -0.000219
  H     -3.254268   -1.410656   -0.000098
  O     -1.146672   -2.835600   -0.000196
  H     -1.294721    2.438945   -0.000128
  H      0.682484   -3.327818   -0.906058
  H      0.682563   -3.327834    0.905501
  C      0.001959    0.706099   -0.000199
  H      1.068754   -1.159256   -0.000264

----------------------------
CARTESIAN COORDINATES (A.U.)
----------------------------
  NO LB      ZA    FRAG     MASS         X           Y           Z
   0 C     6.0000    0    12.011   -4.559634    1.099716   -0.000202
   1 C     6.0000    0    12.011   -4.422813   -1.537152   -0.000239
   2 C     6.0000    0    12.011    0.174675   -6.701128   -0.000482
   3 H     1.0000    0     1.008    1.738320    2.451285   -0.000431
   4 C     6.0000    0    12.011   -2.342951    2.547907   -0.000271
   5 C     6.0000    0    12.011   -2.064845   -2.763682   -0.000345
   6 H     1.0000    0     1.008   -0.292869   -8.722839   -0.000479
   7 H     1.0000    0     1.008   -6.403160    2.025858   -0.000120
   8 C     6.0000    0    12.011    0.155887   -1.313258   -0.000414
   9 H     1.0000    0     1.008   -6.149676   -2.665754   -0.000186
  10 O     8.0000    0    15.999   -2.166895   -5.358508   -0.000370
  11 H     1.0000    0     1.008   -2.446668    4.608938   -0.000242
  12 H     1.0000    0     1.008    1.289708   -6.288664   -1.712202
  13 H     1.0000    0     1.008    1.289857   -6.288695    1.711148
  14 C     6.0000    0    12.011    0.003702    1.334335   -0.000377
  15 H     1.0000    0     1.008    2.019652   -2.190676   -0.000498

--------------------------------
INTERNAL COORDINATES (ANGSTROEM)
--------------------------------
 C      0   0   0     0.000000000000     0.00000000     0.00000000
 C      1   0   0     1.397247735354     0.00000000     0.00000000
 C      2   1   0     3.658736501675   141.29162615     0.00000000
 H      1   2   3     3.408614879368    99.14191711     0.00000000
 C      1   2   3     1.401165351281   120.18686494     0.00000000
 C      2   1   3     1.406495300296   120.45213378     0.00000000
 H      3   2   1     1.098079608544   125.29993298   179.99970741
 H      1   2   3     1.091738396700   119.64412566   179.99996865
 C      6   2   1     1.403605306323   119.36846286     0.00000000
 H      2   1   3     1.091670987529   120.19656574   180.00002969
 O      6   2   1     1.374184393918   115.22965646   179.99993714
 H      5   1   2     1.092030544074   120.27629698   179.99998288
 H      3   2   1     1.102850321934   102.00381216   302.89459953
 H      3   2   1     1.102850199111   102.00386463    57.10480556
 C      4   1   2     1.091757990226    20.66597067     0.00000000
 H      9   6   2     1.090090088949   121.64030245   180.00004123

---------------------------
INTERNAL COORDINATES (A.U.)
---------------------------
 C      0   0   0     0.000000000000     0.00000000     0.00000000
 C      1   0   0     2.640415561061     0.00000000     0.00000000
 C      2   1   0     6.914009984348   141.29162615     0.00000000
 H      1   2   3     6.441348618014    99.14191711     0.00000000
 C      1   2   3     2.647818782260   120.18686494     0.00000000
 C      2   1   3     2.657890926207   120.45213378     0.00000000
 H      3   2   1     2.075069733392   125.29993298   179.99970741
 H      1   2   3     2.063086579650   119.64412566   179.99996865
 C      6   2   1     2.652429629069   119.36846286     0.00000000
 H      2   1   3     2.062959194778   120.19656574   180.00002969
 O      6   2   1     2.596832162014   115.22965646   179.99993714
 H      5   1   2     2.063638658178   120.27629698   179.99998288
 H      3   2   1     2.084085075162   102.00381216   302.89459953
 H      3   2   1     2.084084843061   102.00386463    57.10480556
 C      4   1   2     2.063123606047    20.66597067     0.00000000
 H      9   6   2     2.059971729416   121.64030245   180.00004123

------------------------------------------------------------------------------
                   ___                                                        
                  /   \      - P O W E R E D   B Y -                         
                 /     \                                                     
                 |  |  |   _    _      __       _____    __    __             
[...]
     39      -0.418925   0.199204   0.014711   0.078013   0.348358  -0.379246
     40      -0.299067  -0.076581  -0.020537  -0.057055   0.139664  -0.162797
     41       0.358345  -0.121770  -0.014198  -0.047755   0.558125  -0.570009
     42      -0.003207  -0.096829  -0.185689   0.159226   0.000305   0.000000
     43       0.038229   0.090436  -0.002851  -0.280209  -0.000040   0.000000
     44       0.000001   0.000005   0.000008  -0.000010   0.000000   0.000076
     45       0.041769  -0.147467  -0.069202  -0.209960  -0.017605   0.000000
     46       0.029539  -0.413536  -0.410393  -0.174574   0.010281  -0.000000
     47      -0.000003  -0.000003  -0.000003   0.000005   0.000001  -0.000774
                 42         43         44         45         46         47    
      0       0.000017   0.040624  -0.052604  -0.000858   0.038823  -0.005968
      1      -0.000042  -0.020444   0.026309   0.004476  -0.019711   0.002484
      2      -0.000000  -0.000002   0.000002   0.000000  -0.000002   0.000000
      3       0.000007  -0.014281   0.021144  -0.051037   0.044039  -0.001819
      4       0.000067  -0.008383   0.012138  -0.033167   0.031206  -0.000766
      5      -0.000000   0.000000  -0.000001   0.000002  -0.000001   0.000000
      6      -0.037059   0.000316   0.000656   0.000509   0.000476   0.002017
      7      -0.082843   0.000933   0.000808   0.000788   0.000487   0.001832
      8       0.000000   0.000000   0.000000   0.000000  -0.000000  -0.000000
      9       0.009010   0.543172   0.544202   0.205432   0.147267  -0.226116
     10       0.005616   0.344683   0.345325   0.127278   0.089676  -0.145151
     11      -0.000000  -0.000017  -0.000017  -0.000007  -0.000004   0.000007
     12       0.000022  -0.001637   0.002780   0.004022   0.001273  -0.001977
     13      -0.000141   0.038594  -0.000905  -0.056271  -0.051447   0.013933
     14       0.000000   0.000001  -0.000000  -0.000001  -0.000001   0.000000
     15      -0.000583   0.000304   0.000127   0.001470  -0.002046  -0.002127
     16       0.000731  -0.000559   0.000464  -0.002361   0.001510  -0.002735
     17       0.000000  -0.000000  -0.000000  -0.000000   0.000000   0.000000
     18       0.246858  -0.003101  -0.002817  -0.002688  -0.001935  -0.007759
     19       0.921985  -0.009728  -0.008949  -0.006620  -0.006702  -0.019028
     20      -0.000001   0.000000   0.000000  -0.000000  -0.000000   0.000000
     21       0.000018  -0.483017   0.611671   0.025702  -0.423845   0.062185
     22      -0.000014   0.242497  -0.307014  -0.017876   0.212232  -0.030241
     23       0.000000   0.000022  -0.000028  -0.000001   0.000020  -0.000002
     24       0.002454   0.010553   0.010682   0.012262   0.014682   0.073592
     25      -0.001141  -0.003856  -0.003652  -0.004167  -0.006544  -0.035901
     26      -0.000000  -0.000000  -0.000000  -0.000001  -0.000001  -0.000003
     27       0.000419   0.170991  -0.248314   0.586341  -0.506759   0.017874
     28       0.000053   0.111750  -0.162214   0.386604  -0.337823   0.010721
     29       0.000000  -0.000005   0.000007  -0.000018   0.000016  -0.000000
     30       0.000450   0.000010  -0.000030  -0.000133   0.000257   0.000309
     31      -0.000241  -0.000160  -0.000047   0.000223  -0.000210   0.000204
     32      -0.000000   0.000000   0.000000   0.000000  -0.000000  -0.000000
     33       0.000096   0.023161  -0.004150  -0.033464  -0.026655   0.009210
     34       0.001294  -0.473149   0.011447   0.643679   0.573885  -0.150677
     35      -0.000000  -0.000007   0.000000   0.000010   0.000008  -0.000002
     36       0.095998  -0.000899  -0.002841  -0.001711  -0.002472  -0.009423
     37       0.028693  -0.000620  -0.001059  -0.001086  -0.000995  -0.004893
     38      -0.172514   0.002212   0.004758   0.003418   0.004199   0.016021
     39       0.096013  -0.000899  -0.002841  -0.001712  -0.002472  -0.009424
     40       0.028691  -0.000620  -0.001059  -0.001086  -0.000995  -0.004893
     41       0.172512  -0.002212  -0.004757  -0.003418  -0.004199  -0.016020
     42      -0.000712  -0.045883  -0.046969  -0.019651  -0.014618   0.020683
     43      -0.000383  -0.029320  -0.029924  -0.010081  -0.006667   0.014821
     44       0.000000   0.000001   0.000001   0.000001   0.000000  -0.000001
     45      -0.028344  -0.130385  -0.129635  -0.140871  -0.171783  -0.847145
     46       0.015466   0.062223   0.061844   0.066464   0.083732   0.416375
     47       0.000001   0.000006   0.000006   0.000006   0.000008   0.000039


-----------
IR SPECTRUM
-----------

 Mode   freq       eps      Int      T**2         TX        TY        TZ
       cm**-1   L/(mol*cm) km/mol    a.u.
----------------------------------------------------------------------------
  6:     93.44   0.000727    3.68  0.002429  ( 0.000000  0.000005 -0.049283)
  7:    197.04   0.000019    0.09  0.000029  (-0.000004 -0.000002 -0.005419)
  8:    245.00   0.000430    2.17  0.000548  ( 0.008101  0.021954 -0.000000)
  9:    256.80   0.000062    0.31  0.000075  ( 0.000005  0.000005  0.008675)
 10:    405.08   0.000001    0.01  0.000001  (-0.000000  0.000007 -0.001053)
 11:    432.63   0.000189    0.95  0.000136  (-0.010971  0.003971 -0.000001)
 12:    496.75   0.002013   10.18  0.001265  (-0.000002  0.000006 -0.035565)
 13:    540.88   0.001108    5.60  0.000639  (-0.005963 -0.024571 -0.000000)
 14:    605.11   0.000095    0.48  0.000049  ( 0.006208 -0.003203 -0.000001)
 15:    671.03   0.004037   20.40  0.001878  ( 0.000013 -0.000002  0.043332)
 16:    730.78   0.011444   57.83  0.004887  (-0.000015  0.000003 -0.069906)
 17:    772.25   0.002673   13.51  0.001080  ( 0.006723  0.032171  0.000001)
 18:    790.49   0.000011    0.05  0.000004  (-0.000003 -0.000000  0.002047)
 19:    850.62   0.001287    6.50  0.000472  ( 0.000014  0.000002  0.021725)
 20:    896.28   0.000012    0.06  0.000004  (-0.000001 -0.000012 -0.002013)
 21:    909.08   0.000031    0.16  0.000011  (-0.000004  0.000004  0.003284)
 22:    979.41   0.000195    0.99  0.000062  (-0.007256 -0.003076  0.000000)
 23:   1010.55   0.002630   13.29  0.000812  ( 0.024815 -0.014016 -0.000001)
 24:   1028.19   0.008664   43.78  0.002630  (-0.032054  0.040027  0.000002)
 25:   1072.43   0.001799    9.09  0.000523  (-0.022637 -0.003312  0.000001)
 26:   1125.83   0.000074    0.37  0.000020  (-0.000000  0.000001 -0.004518)
 27:   1145.62   0.000603    3.05  0.000164  (-0.001933 -0.012671 -0.000000)
 28:   1159.54   0.003778   19.09  0.001017  ( 0.008104 -0.030838 -0.000001)
 29:   1163.10   0.001928    9.74  0.000517  ( 0.012515 -0.018989 -0.000001)
 30:   1227.82   0.042034  212.42  0.010683  ( 0.027156 -0.099729 -0.000002)
 31:   1298.69   0.000289    1.46  0.000069  ( 0.000291 -0.008327 -0.000000)
 32:   1339.11   0.002908   14.69  0.000678  (-0.015517  0.020900  0.000001)
 33:   1421.93   0.001473    7.45  0.000323  ( 0.002098  0.017859  0.000000)
 34:   1439.52   0.000898    4.54  0.000195  ( 0.001803  0.013835  0.000000)
 35:   1442.91   0.001373    6.94  0.000297  (-0.000001 -0.000001 -0.017235)
 36:   1458.18   0.006237   31.52  0.001335  ( 0.009525 -0.035270 -0.000001)
 37:   1479.08   0.014401   72.78  0.003038  ( 0.009344 -0.054325 -0.000001)
 38:   1572.60   0.004035   20.39  0.000801  (-0.011352 -0.025919  0.000000)
 39:   1590.05   0.012303   62.18  0.002415  ( 0.014412 -0.046978 -0.000001)
 40:   2932.87   0.011200   56.60  0.001192  (-0.027008  0.021500  0.000002)
 41:   2992.27   0.007770   39.26  0.000810  ( 0.000001 -0.000001  0.028466)
 42:   3062.92   0.004286   21.66  0.000437  (-0.004486 -0.020410 -0.000000)
 43:   3092.57   0.000500    2.53  0.000050  (-0.000815 -0.007058 -0.000000)
 44:   3099.52   0.002383   12.04  0.000240  (-0.015483 -0.000472  0.000001)
 45:   3116.63   0.004051   20.47  0.000406  (-0.007247 -0.018791  0.000000)
 46:   3123.72   0.002705   13.67  0.000270  ( 0.011403 -0.011843 -0.000001)
 47:   3134.58   0.001310    6.62  0.000130  ( 0.011016 -0.003004 -0.000000)

* The epsilon (eps) is given for a Dirac delta lineshape.
** The dipole moment derivative (T) already includes vibrational overlap.

The first frequency considered to be a vibration is 6
The total number of vibrations considered is 42


--------------------------
THERMOCHEMISTRY AT 298.15K
--------------------------

Temperature         ...   298.15 K
Pressure            ...     1.00 atm
Total Mass          ...   108.14 AMU
Quasi RRHO          ...     True
Cut-Off Frequency   ...     1.00 cm^-1

Throughout the following assumptions are being made:
  (1) The electronic state is orbitally nondegenerate
  (2) There are no thermally accessible electronically excited states
  (3) Hindered rotations indicated by low frequency modes are not
      treated as such but are treated as vibrations and this may
      cause some error
  (4) All equations used are the standard statistical mechanics
      equations for an ideal gas
  (5) All vibrations are strictly harmonic

freq.      93.44  E(vib)   ...       0.47 
freq.     197.04  E(vib)   ...       0.35 
freq.     245.00  E(vib)   ...       0.31 
freq.     256.80  E(vib)   ...       0.30 
freq.     405.08  E(vib)   ...       0.19 
freq.     432.63  E(vib)   ...       0.18 
freq.     496.75  E(vib)   ...       0.14 
freq.     540.88  E(vib)   ...       0.12 
freq.     605.11  E(vib)   ...       0.10 
freq.     671.03  E(vib)   ...       0.08 
freq.     730.78  E(vib)   ...       0.06 
freq.     772.25  E(vib)   ...       0.05 
freq.     790.49  E(vib)   ...       0.05 
freq.     850.62  E(vib)   ...       0.04 
freq.     896.28  E(vib)   ...       0.03 
freq.     909.08  E(vib)   ...       0.03 
freq.     979.41  E(vib)   ...       0.03 
freq.    1010.55  E(vib)   ...       0.02 
freq.    1028.19  E(vib)   ...       0.02 
freq.    1072.43  E(vib)   ...       0.02 
freq.    1125.83  E(vib)   ...       0.01 
freq.    1145.62  E(vib)   ...       0.01 
freq.    1159.54  E(vib)   ...       0.01 
freq.    1163.10  E(vib)   ...       0.01 
freq.    1227.82  E(vib)   ...       0.01 
freq.    1298.69  E(vib)   ...       0.01 
freq.    1339.11  E(vib)   ...       0.01 
freq.    1421.93  E(vib)   ...       0.00 
freq.    1439.52  E(vib)   ...       0.00 
freq.    1442.91  E(vib)   ...       0.00 
freq.    1458.18  E(vib)   ...       0.00 
freq.    1479.08  E(vib)   ...       0.00 
freq.    1572.60  E(vib)   ...       0.00 
freq.    1590.05  E(vib)   ...       0.00 
freq.    2932.87  E(vib)   ...       0.00 
freq.    2992.27  E(vib)   ...       0.00 
freq.    3062.92  E(vib)   ...       0.00 
freq.    3092.57  E(vib)   ...       0.00 
freq.    3099.52  E(vib)   ...       0.00 
freq.    3116.63  E(vib)   ...       0.00 
freq.    3123.72  E(vib)   ...       0.00 
freq.    3134.58  E(vib)   ...       0.00 

------------
INNER ENERGY
------------

The inner energy is: U= E(el) + E(ZPE) + E(vib) + E(rot) + E(trans)
    E(el)   - is the total energy from the electronic structure calculation
              = E(kin-el) + E(nuc-el) + E(el-el) + E(nuc-nuc)
    E(ZPE)  - the the zero temperature vibrational energy from the frequency calculation
    E(vib)  - the the finite temperature correction to E(ZPE) due to population
              of excited vibrational states
    E(rot)  - is the rotational thermal energy
    E(trans)- is the translational thermal energy

Summary of contributions to the inner energy U:
Electronic energy                ...   -346.79813805 Eh
Zero point energy                ...      0.12849536 Eh      80.63 kcal/mol
Thermal vibrational correction   ...      0.00430362 Eh       2.70 kcal/mol
Thermal rotational correction    ...      0.00141627 Eh       0.89 kcal/mol
Thermal translational correction ...      0.00141627 Eh       0.89 kcal/mol
-----------------------------------------------------------------------
Total thermal energy                   -346.66250654 Eh


Summary of corrections to the electronic energy:
(perhaps to be used in another calculation)
Total thermal correction                  0.00713616 Eh       4.48 kcal/mol
Non-thermal (ZPE) correction              0.12849536 Eh      80.63 kcal/mol
-----------------------------------------------------------------------
Total correction                          0.13563152 Eh      85.11 kcal/mol


--------
ENTHALPY
--------

The enthalpy is H = U + kB*T
                kB is Boltzmann's constant
Total thermal energy              ...   -346.66250654 Eh 
Thermal Enthalpy correction       ...      0.00094421 Eh       0.59 kcal/mol
-----------------------------------------------------------------------
Total Enthalpy                    ...   -346.66156233 Eh


Note: Rotational entropy computed according to Herzberg 
Infrared and Raman Spectra, Chapter V,1, Van Nostrand Reinhold, 1945 
Point Group:  Cs, Symmetry Number:   1  
Rotational constants in cm-1:     0.166360     0.051446     0.039596 

Vibrational entropy computed according to the QRRHO of S. Grimme
Chem.Eur.J. 2012 18 9955 using a reference frequency of 100.0 cm-1


-------
ENTROPY
-------

The entropy contributions are T*S = T*(S(el)+S(vib)+S(rot)+S(trans))
     S(el)   - electronic entropy
     S(vib)  - vibrational entropy
     S(rot)  - rotational entropy
     S(trans)- translational entropy
The entropies will be listed as multiplied by the temperature to get
units of energy

Electronic entropy                ...      0.00000000 Eh      0.00 kcal/mol
Vibrational entropy               ...      0.00690729 Eh      4.33 kcal/mol
Rotational entropy                ...      0.01328275 Eh      8.34 kcal/mol
Translational entropy             ...      0.01898207 Eh     11.91 kcal/mol
-----------------------------------------------------------------------
Final entropy term                ...      0.03917211 Eh     24.58 kcal/mol

In case the symmetry of your molecule has not been determined correctly
or in case you have a reason to use a different symmetry number we print 
out the resulting rotational entropy values for sn=1,12:

 non-linear molecules -----------------------------------
|  sn= 1 | S(rot)=       0.01328275 Eh      8.34 kcal/mol|
|  sn= 2 | S(rot)=       0.01262829 Eh      7.92 kcal/mol|
|  sn= 3 | S(rot)=       0.01224546 Eh      7.68 kcal/mol|
|  sn= 4 | S(rot)=       0.01197383 Eh      7.51 kcal/mol|
|  sn= 5 | S(rot)=       0.01176315 Eh      7.38 kcal/mol|
|  sn= 6 | S(rot)=       0.01159100 Eh      7.27 kcal/mol|
|  sn= 7 | S(rot)=       0.01144546 Eh      7.18 kcal/mol|
|  sn= 8 | S(rot)=       0.01131938 Eh      7.10 kcal/mol|
|  sn= 9 | S(rot)=       0.01120817 Eh      7.03 kcal/mol|
|  sn=10 | S(rot)=       0.01110869 Eh      6.97 kcal/mol|
|  sn=11 | S(rot)=       0.01101870 Eh      6.91 kcal/mol|
|  sn=12 | S(rot)=       0.01093655 Eh      6.86 kcal/mol|
 linear molecules ---------------------------------------
|  Dinfh | S(rot)=       0.00837460 Eh      5.26 kcal/mol|
|  Cinfv | S(rot)=       0.00902905 Eh      5.67 kcal/mol|
 --------------------------------------------------------


-------------------
GIBBS FREE ENERGY
-------------------

The Gibbs free energy is G = H - T*S

Total enthalpy                    ...   -346.66156233 Eh 
Total entropy correction          ...     -0.03917211 Eh    -24.58 kcal/mol
-----------------------------------------------------------------------
Final Gibbs free energy         ...   -346.70073444 Eh

For completeness - the Gibbs free energy minus the electronic energy
G-E(el)                           ...      0.09740362 Eh     61.12 kcal/mol


Maximum memory used throughout the entire PROP-calculation: 62.3 MB

--------------------------------
SUGGESTED CITATIONS FOR THIS RUN
--------------------------------

Below you find a list of papers that are relevant to this ORCA run
We neither can nor want to force you to cite these papers, but we appreciate if you do
You receive ORCA, which is the product of decades of hard work by many enthusiastic individuals, for free
The only thing we kindly ask in return is that you cite our papers,
We deeply appreciate it, if you show your appreciation for ORCA by not just citing the generic ORCA reference.

Please note that relegating all ORCA citations to the supporting information does *not* help us.
SI sections are not indexed - citations you put there will not count into any citation statistics
But we need these citations in order to attract the funding resources that allow us to do what we are doing

Therefore, if you are a happy ORCA user, please consider citing a few of the papers listed below in the main body of your paper

In addition to the list printed below, the program has created the file job.bibtex that contains the list in bibtex format
You can import this file easily into all common literature databanks and citation aid programs


List of essential papers. We consider these as the minimum necessary citations

  1. Neese, F.
     Software update: the ORCA program system, version 6.0
     WIRES Comput. Molec. Sci. 2025 15(1), e70019
     doi.org/10.1002/wcms.7019

List of papers to cite with high priority. The work reported in these papers was absolutely
necessary for this run to complete.
Our perspective: the developers of density functionals and basis sets usually get cited in chemistry papers
Good! But without the algorithms to do something with them, the functionals or basis sets would not do anything.
Hence, in our opinion, the algorithm design and method developments papers are equally worthy of getting cited

  1. Neese, F.
     An improvement of the resolution of the identity approximation for the formation of the Coulomb matrix
     J. Comp. Chem. 2003 24(14), 1740-1747
     doi.org/10.1002/jcc.10318
  2. Bykov, D.; Petrenko, T.; Izsak, R.; Kossmann, S.; Becker, U.; Valeev, E.; Neese, F.
     Efficient implementation of the analytic second derivatives of Hartree-Fock and hybrid DFT energies: a detailed analysis of different approximations
     Molec. Phys. 2015 113 , 1961-1977
     doi.org/10.1080/00268976.2015.1025114
  3. Neese, F.
     The SHARK Integral Generation and Digestion System
     J. Comp. Chem. 2022 44(3), 381
     doi.org/10.1002/jcc.26942

List of suggested additional citations. These are papers that are important in the 'surrounding' of 
of this run, or papers that preceded the highly important papers. If you like your results we are grateful for a citation.

  1. Neese, F.
     The ORCA program system
     WIRES Comput. Molec. Sci. 2012 2(1), 73-78
     doi.org/10.1002/wcms.81
  2. Neese, F.
     Software update: the ORCA program system, version 4.0
     WIRES Comput. Molec. Sci. 2018 8(1), 1-6
     doi.org/10.1002/wcms.1327
  3. Neese, F.; Wennmohs, F.; Becker, U.; Riplinger, C.
     The ORCA quantum chemistry program package
     J. Chem. Phys. 2020 152(22), 224108
     doi.org/10.1063/5.0004608
  4. Neese, F.
     Software update: The ORCA program system—Version 5.0
     WIRES Comput. Molec. Sci. 2022 12(1), e1606
     doi.org/10.1002/wcms.1606

List of optional additional citations

  1. Neese, F.
     Approximate second-order SCF convergence for spin unrestricted wavefunctions
     Chem. Phys. Lett. 2000 325(1-3), 93-98
     doi.org/10.1016/s0009-2614(00)00662-x

Timings for individual modules:

Sum of individual times          ...      274.945 sec (=   4.582 min)
Startup calculation              ...        2.766 sec (=   0.046 min)   1.0 %
SCF iterations                   ...       41.929 sec (=   0.699 min)  15.2 %
Property integrals               ...      115.089 sec (=   1.918 min)  41.9 %
SCF Response                     ...       42.561 sec (=   0.709 min)  15.5 %
Property calculations            ...       49.443 sec (=   0.824 min)  18.0 %
SCF Gradient evaluation          ...       23.142 sec (=   0.386 min)   8.4 %
Geometry relaxation              ...        0.015 sec (=   0.000 min)   0.0 %
                             ****ORCA TERMINATED NORMALLY****
TOTAL RUN TIME: 0 days 0 hours 4 minutes 35 seconds 279 msec
