
                                 *****************
                                 * O   R   C   A *
                                 *****************

                                            #,                                       
                                            ###                                      
                                            ####                                     
                                            #####                                    
                                            ######                                   
                                           ########,                                 
                                     ,,################,,,,,                         
                               ,,#################################,,                 
                          ,,##########################################,,             
                       ,#########################################, ''#####,          
                    ,#############################################,,   '####,        
                  ,##################################################,,,,####,       
                ,###########''''           ''''###############################       
              ,#####''   ,,,,##########,,,,          '''####'''          '####       
            ,##' ,,,,###########################,,,                        '##       
           ' ,,###''''                  '''############,,,                           
         ,,##''                                '''############,,,,        ,,,,,,###''
      ,#''                                            '''#######################'''  
     '                                                          ''''####''''         
             ,#######,   #######,   ,#######,      ##                                
            ,#'     '#,  ##    ##  ,#'     '#,    #''#        ,####,    ,#,          
            ##       ##  ##   ,#'  ##            #'  '#       #'       ,# #          
            ##       ##  #######   ##           ,######,      #####,      #          
            '#,     ,#'  ##    ##  '#,     ,#' ,#      #,     #,   #      #          
             '#######'   ##     ##  '#######'  #'      '#     '####' #    #          



                #########################################################
                #                        -***-                          #
                #          Department of theory and spectroscopy        #
                #                                                       #
                #                      Frank Neese                      #
                #                                                       #
                #     Directorship, Architecture, Infrastructure        #
                #                    SHARK, DRIVERS                     #
                #        Core code/Algorithms in most modules           #
                #                                                       #
                #        Max Planck Institute fuer Kohlenforschung      #
                #                Kaiser Wilhelm Platz 1                 #
                #                 D-45470 Muelheim/Ruhr                 #
                #                      Germany                          #
                #                                                       #
                #                  All rights reserved                  #
                #                        -***-                          #
                #########################################################


                         Program Version 6.1.0  -  RELEASE   -
                                (GIT: $679e74b7b5$)
                          ($2025-06-10 18:02:51 +0200$)


 With contributions from (in alphabetic order):
[Max-Planck-Institut fuer Kohlenforschung]                               
  Daniel Aravena         : Magnetic Suceptibility                        
  Michael Atanasov       : Ab Initio Ligand Field Theory (pilot matlab implementation)
  Alexander A. Auer      : GIAO ZORA, VPT2 properties, NMR spectrum      
  Ute Becker             : All parallelization in ORCA, NUMFREQ, NUMCALC 
  Giovanni Bistoni       : ED, misc. LED, open-shell LED, HFLD           
  Dmytro Bykov           : pre 5.0 version of the SCF Hessian            
  Marcos Casanova-Páez   : Triplet and SCS-CIS(D). UHF-(DLPNO)-IP/EA/STEOM-CCSD. UHF-CVS-IP/STEOM-CCSD   
  Vijay G. Chilkuri      : MRCI spin determinant printing, contributions to CSF-ICE 
  Pauline Colinet        : FMM embedding                                 
  Dipayan Datta          : RHF DLPNO-CCSD density                        
  Achintya Kumar Dutta   : EOM-CC, STEOM-CC                              
  Nicolas Foglia         : Exact transition moments, OPA infrastructure, MCD improvements    
  Dmitry Ganyushin       : Spin-Orbit,Spin-Spin,Magnetic field MRCI      
  Miquel Garcia-Rates    : C-PCM and meta-GGA Hessian, CCSD/C-PCM, Gaussian charge scheme 
  Tiago L. C. Gouveia    : GS-ROHF, GS-ROCIS                             
  Yang Guo               : DLPNO-NEVPT2, F12-NEVPT2, CIM, IAO-localization        
  Andreas Hansen         : Spin unrestricted coupled pair/coupled cluster methods 
  Ingolf Harden          : AUTO-CI MPn and infrastructure                
  Benjamin Helmich-Paris : MC-RPA, TRAH-(SCF,CASSCF), AVAS, COSX integrals, SCF dyn. polar., MC-PDFT, srDFT 
  Lee Huntington         : MR-EOM, pCC                                   
  Robert Izsak           : Overlap fitted RIJCOSX, COSX-SCS-MP3, EOM     
  Riya Kayal             : Wick's Theorem for AUTO-CI, AUTO-CI UHF-CCSDT 
  Emily Kempfer          : AUTO-CI RHF CISDT and CCSDT, approximate NEVPT4
  Christian Kollmar      : KDIIS, OOCD, Brueckner-CCSD(T), CCSD density, CASPT2, CASPT2-K, improved NEVPT2 
  Axel Koslowski         : Symmetry handling                             
  Simone Kossmann        : meta-GGA functionals, TD-DFT gradient, OOMP2, (MP2 Hessian; deprecated post 5.0) 
  Lucas Lang             : DCDCAS, Hyperfine gauge corrections, ICE-SOC+SSC
  Marvin Lechner         : AUTO-CI (C++ implementation), FIC-MRCC        
  Spencer Leger          : CASSCF response                               
  Dagmar Lenk            : GEPOL surface, SMD, ORCA-2-JSON               
  Dimitrios Liakos       : Extrapolation schemes; Compound Job, Property file
  Dimitrios Manganas     : Further ROCIS development; embedding schemes. LFT, Crystal Embedding 
  Dimitrios Pantazis     : SARC Basis sets                               
  Anastasios Papadopoulos: AUTO-CI, single reference methods and gradients 
  Taras Petrenko         : pre 6.0 DFT Hessian and TD-DFT gradient,  ECA, NRVS 
  Petra Pikulova         : Analytic Raman intensities                    
  Peter Pinski           : DLPNO-MP2, DLPNO-MP2 Gradient                 
  Shashank Vittal Rao    : ES-AILFT, MagRelax                            
  Christoph Reimann      : Effective Core Potentials                     
  Marius Retegan         : Local ZFS, SOC                                
  Christoph Riplinger    : Optimizer, TS searches, QM/MM, DLPNO-CCSD(T), (RO)-DLPNO pert. Triples 
  Michael Roemelt        : Original ROCIS implementation, recursive CI coupling coefficients
  Masaaki Saitow         : Open-shell DLPNO-CCSD energy and density      
  Barbara Sandhoefer     : DKH picture change effects                    
  Yorick L. A. Schmerwitz: GMF and freeze-and-release deltaSCF, NEB S-IDPP initial path                    
  Kantharuban Sivalingam : CASSCF convergence/infrastructure, NEVPT2, NEVPT3, NEVPT4(SD), FIC-MRCI and CEPA variants
  Bernardo de Souza      : ESD, SOC TD-DFT                               
  Georgi L. Stoychev     : AutoAux, RI-MP2 NMR, DLPNO-MP2 response, X2C  
  Van Anh Tran           : RI-MP2 g-tensors                              
  Willem Van den Heuvel  : Paramagnetic NMR                              
  Zikuan Wang            : NOTCH, Electric field optimization            
  Frank Wennmohs         : Technical directorship and infrastructure     
  Hang Xu                : AUTO-CI-Response properties                   
                                                                         
[FACCTs GmbH]                                                            
  Markus Bursch, Nicolas Foglia, Miquel Garcia-Rates, Ingolf Harden, Hagen Neugebauer, Anastasios Papadopoulos, 
  Christoph Riplinger, Bernardo de Souza, Georgi L. Stoychev                                                    
                                                                 
  APM, various basis sets, CI-OPT, improved COSX, DLPNO-Multilevel,           
  DOCKER, DRACO, updates on ESD, Fragmentator, GOAT, IRC, LR-CPCM, L-BFGS, MBIS, meta-GGA TD-DFT gradient, ML-optimized integration grids, 
  MM, NACMEs, nearIR, NEB, NEB-TS, NL-DFT gradient (VV10), 2- and 3-layer-ONIOM, interface openCOSMO-RS, QMMM,   
  Crystal-QMMM, RESP, rigid body optimization, SF, symmetry and pop. for TD-DFT, various functionals, SOLVATOR                                   
                                                                         
[Other institutions]                                                     
  V. Asgeirsson          : NEB                                           
  Christoph Bannwarth    : sTDA-DFT, sTD-DFT, PBEh-3c, B97-3c, D3        
  Giovanni Bistoni       : ETS/NOCV, ADLD/ADEX, COVALED                  
  Martin Brehm           : Molecular dynamics                            
  Ronald Cardenas        : ETS/NOCV                                      
  Martina Colucci        : COVALED                                       
  Sebastian Ehlert       : rSCAN, r2SCAN, r2SCAN-3c, D4, dhf basis sets  
  Marvin Friede          : D4 for Fr, Ra, Ac-Lr                          
  Lars Goerigk           : TD-DFT with DH, B97 family of functionals     
  Stefan Grimme          : VdW corrections, initial TS optimization, DFT functionals, gCP, sTDA/sTD-DF 
  Waldemar Hujo          : DFT-NL                                        
  H. Jonsson             : NEB                                           
  Holger Kruse           : gCP                                           
  Marcel Mueller         : wB97X-3c, vDZP basis set                      
  Hagen Neugebauer       : wr2SCAN, Native XTB                           
  Gianluca Regni         : ADLD/ADEX                                     
  Tobias Risthaus        : pre 6.0 range-separated hybrid DFT and stability analysis
  Lukas Wittmann         : regularized MP2, r2SCAN double-hybrids, wr2SCAN        
                                                                         
We gratefully acknowledge several colleagues who have allowed us to      
interface, adapt or use parts of their codes:                            
  Ed Valeev, F. Pavosevic, A. Kumar             : LibInt (2-el integral package), F12 methods 
  Garnet Chan, S. Sharma, J. Yang, R. Olivares  : DMRG                   
  Ulf Ekstrom                                   : XCFun DFT Library      
  Mihaly Kallay                                 : mrcc  (arbitrary order and MRCC methods)
  Frank Weinhold                                : gennbo (NPA and NBO analysis)           
  Simon Mueller                                 : openCOSMO-RS                            
  Christopher J. Cramer and Donald G. Truhlar   : smd solvation model                     
  S Lehtola, MJT Oliveira, MAL Marques          : LibXC Library                           
  Liviu Ungur et al                             : ANISO software                          


 Your calculation uses the libint2 library for the computation of 2-el integrals
 For citations please refer to: http://libint.valeyev.net

 Your ORCA version has been built with support for libXC version: 7.0.0
 For citations please refer to: https://libxc.gitlab.io

 This ORCA versions uses:
   CBLAS   interface :  Fast vector & matrix operations
   LAPACKE interface :  Fast linear algebra routines
   SCALAPACK package :  Parallel linear algebra routines
   Shared memory     :  Shared parallel matrices


  ***********************************
  * Starting time: Wed Jul  9 18:04:48 2025
  * Host name:     MacBook-Air-3.local
  * Process ID:    75110
  * Working dir.:  /Users/blenl/Desktop/Folders/Projects/DFT2/edonating/amide/single_point
  ***********************************

NOTE: MaxCore=16384 MB was set to SCF,MP2,MDCI,CIPSI,MRCI,RASCI and CIS
      => If you want to overwrite this, your respective input block should be placed after the MaxCore statement
Warning: RI is on but no J-basis has been assigned. Assigning Def2/J (nothing to worry about!)
================================================================================

----- Orbital basis set information -----
Your calculation utilizes the basis: def2-TZVP
   F. Weigend and R. Ahlrichs, Phys. Chem. Chem. Phys. 7, 3297 (2005).

----- AuxJ basis set information -----
Your calculation utilizes the auxiliary basis: def2/J
   H-Rn: F. Weigend, Phys. Chem. Chem. Phys. 8, 1057 (2006).
   Fr-Lr: K. Eichkorn, F. Weigend, O. Treutler, R. Ahlrichs; Theor. Chem. Acc. 97, 119 (1997).

================================================================================
                                        WARNINGS
                       Please study these warnings very carefully!
================================================================================


================================================================================
                                       INPUT FILE
================================================================================
NAME = job.inp
|  1> # avogadro generated ORCA file
|  2> # C6H7N | Single Point | revPBE/def2-TZVP
|  3> # 
|  4> ! SP revPBE def2-TZVP 
|  5> 
|  6> %maxcore 16384
|  7> 
|  8> %pal
|  9>    nprocs 1
| 10> end
| 11> 
| 12> %output
| 13>   Print[P_Basis] 2
| 14>   Print[P_MOs] 1
| 15> end
| 16> 
| 17> 
| 18> * xyz 0 1
| 19>    C     -3.009159    1.743655    0.060137
| 20>    C     -3.056828    0.347057    0.065177
| 21>    H      0.357988    2.160812   -0.062885
| 22>    H     -1.740842    3.484447    0.020917
| 23>    C     -1.780273    2.398623    0.032063
| 24>    C     -1.880917   -0.407630    0.086352
| 25>    H     -1.098192   -2.270588    0.296111
| 26>    H     -2.781412   -2.209237    0.351066
| 27>    C     -0.602754    1.655995   -0.010271
| 28>    N     -1.935509   -1.802016   -0.034885
| 29>    H     -4.024051   -0.147711    0.052652
| 30>    C     -0.656596    0.259574   -0.005453
| 31>    H     -3.931863    2.317466    0.062250
| 32>    H      0.269569   -0.304446   -0.073387
| 33> *
| 34> 
| 35> 
| 36> 
| 37>                          ****END OF INPUT****
================================================================================

                       ****************************
                       * Single Point Calculation *
                       ****************************

---------------------------------
CARTESIAN COORDINATES (ANGSTROEM)
---------------------------------
  C     -3.009159    1.743655    0.060137
  C     -3.056828    0.347057    0.065177
  H      0.357988    2.160812   -0.062885
  H     -1.740842    3.484447    0.020917
  C     -1.780273    2.398623    0.032063
  C     -1.880917   -0.407630    0.086352
  H     -1.098192   -2.270588    0.296111
  H     -2.781412   -2.209237    0.351066
  C     -0.602754    1.655995   -0.010271
  N     -1.935509   -1.802016   -0.034885
  H     -4.024051   -0.147711    0.052652
  C     -0.656596    0.259574   -0.005453
  H     -3.931863    2.317466    0.062250
  H      0.269569   -0.304446   -0.073387

----------------------------
CARTESIAN COORDINATES (A.U.)
----------------------------
  NO LB      ZA    FRAG     MASS         X           Y           Z
   0 C     6.0000    0    12.011   -5.686486    3.295030    0.113642
   1 C     6.0000    0    12.011   -5.776568    0.655843    0.123167
   2 H     1.0000    0     1.008    0.676499    4.083343   -0.118835
   3 H     1.0000    0     1.008   -3.289715    6.584651    0.039527
   4 C     6.0000    0    12.011   -3.364228    4.532741    0.060590
   5 C     6.0000    0    12.011   -3.554418   -0.770309    0.163182
   6 H     1.0000    0     1.008   -2.075282   -4.290789    0.559569
   7 H     1.0000    0     1.008   -5.256107   -4.174853    0.663419
   8 C     6.0000    0    12.011   -1.139040    3.129377   -0.019409
   9 N     7.0000    0    14.007   -3.657582   -3.405317   -0.065923
  10 H     1.0000    0     1.008   -7.604354   -0.279133    0.099498
  11 C     6.0000    0    12.011   -1.240787    0.490524   -0.010305
  12 H     1.0000    0     1.008   -7.430144    4.379376    0.117635
  13 H     1.0000    0     1.008    0.509412   -0.575320   -0.138681

--------------------------------
INTERNAL COORDINATES (ANGSTROEM)
--------------------------------
 C      0   0   0     0.000000000000     0.00000000     0.00000000
 C      1   0   0     1.397420376538     0.00000000     0.00000000
 H      1   2   0     3.395119039849    99.01883234     0.00000000
 H      1   2   3     2.154187319653   145.87045243   359.48479093
 C      4   1   2     1.086596887559    33.99623156   359.32473472
 C      2   1   3     1.397414587198   120.73654621     2.95702240
 H      6   2   1     2.031568303914   145.18623982   170.57074179
 H      7   6   2     1.685233979489    65.49092465     2.26024913
 C      3   1   2     1.086569660468    20.65002974   357.51916052
 N      7   6   2     1.014996467821    39.20941135    30.08346380
 H      2   1   3     1.086495550464   119.04114144   182.94002751
 C      6   2   1     1.397337198632   118.58316510   354.95827770
 H      1   2   3     1.086575446118   119.92103293   178.17772083
 H     12   6   2     1.086515161413   120.20631181   185.00607216

---------------------------
INTERNAL COORDINATES (A.U.)
---------------------------
 C      0   0   0     0.000000000000     0.00000000     0.00000000
 C      1   0   0     2.640741805619     0.00000000     0.00000000
 H      1   2   0     6.415845177375    99.01883234     0.00000000
 H      1   2   3     4.070824075310   145.87045243   359.48479093
 C      4   1   2     2.053370535458    33.99623156   359.32473472
 C      2   1   3     2.640730865352   120.73654621     2.95702240
 H      6   2   1     3.839107716753   145.18623982   170.57074179
 H      7   6   2     3.184630692813    65.49092465     2.26024913
 C      3   1   2     2.053319083712    20.65002974   357.51916052
 N      7   6   2     1.918065351079    39.20941135    30.08346380
 H      2   1   3     2.053179036101   119.04114144   182.94002751
 C      6   2   1     2.640584622156   118.58316510   354.95827770
 H      1   2   3     2.053330017006   119.92103293   178.17772083
 H     12   6   2     2.053216095424   120.20631181   185.00607216

---------------------
BASIS SET INFORMATION
---------------------
There are 3 groups of distinct atoms

 Group   1 Type C   : 11s6p2d1f contracted to 5s3p2d1f pattern {62111/411/11/1}
 Group   2 Type H   : 5s1p contracted to 3s1p pattern {311/1}
 Group   3 Type N   : 11s6p2d1f contracted to 5s3p2d1f pattern {62111/411/11/1}

Atom   0C    basis set group =>   1
Atom   1C    basis set group =>   1
Atom   2H    basis set group =>   2
Atom   3H    basis set group =>   2
Atom   4C    basis set group =>   1
Atom   5C    basis set group =>   1
Atom   6H    basis set group =>   2
Atom   7H    basis set group =>   2
Atom   8C    basis set group =>   1
Atom   9N    basis set group =>   3
Atom  10H    basis set group =>   2
Atom  11C    basis set group =>   1
Atom  12H    basis set group =>   2
Atom  13H    basis set group =>   2

-------------------------
BASIS SET IN INPUT FORMAT
-------------------------

 # Basis set for element : H 
 NewGTO H 
 S 3 
   1      34.0613410000      0.0254393072
   2       5.1235746000      0.1900859489
   3       1.1646626000      0.8524411301
 S 1 
   1       0.3272304100      1.0000000000
 S 1 
   1       0.1030724100      1.0000000000
 P 1 
   1       0.8000000000      1.0000000000
  end;

 # Basis set for element : C 
 NewGTO C 
 S 6 
   1   13575.3496820000      0.0006064549
   2    2035.2333680000      0.0046979088
   3     463.2256235900      0.0243324776
   4     131.2001959800      0.0973999683
   5      42.8530158910      0.3019558425
   6      15.5841857660      0.6623360915
 S 2 
   1       6.2067138508      0.6559530854
   2       2.5764896527      0.3758563329
 S 1 
   1       0.5769633942      1.0000000000
 S 1 
   1       0.2297283136      1.0000000000
 S 1 
   1       0.0951644400      1.0000000000
 P 4 
   1      34.6972322440      0.0113272200
   2       7.9582622826      0.0761696592
   3       2.3780826883      0.3019225220
   4       0.8143320818      0.7278502735
 P 1 
   1       0.2888754725      1.0000000000
 P 1 
   1       0.1005682367      1.0000000000
 D 1 
   1       1.0970000000      1.0000000000
 D 1 
   1       0.3180000000      1.0000000000
 F 1 
   1       0.7610000000      1.0000000000
  end;

 # Basis set for element : N 
 NewGTO N 
 S 6 
   1   19730.8006470000      0.0005862639
   2    2957.8958745000      0.0045428821
   3     673.2213359500      0.0235584136
   4     190.6824949400      0.0947091933
   5      62.2954418980      0.2971978492
   6      22.6541611820      0.6691624689
 S 2 
   1       8.9791477428      0.6459668363
   2       3.6863002370      0.3870057440
 S 1 
   1       0.8466007680      1.0000000000
 S 1 
   1       0.3364713377      1.0000000000
 S 1 
   1       0.1364765367      1.0000000000
 P 4 
   1      49.2003805100      0.0114488252
   2      11.3467905370      0.0784223379
   3       3.4273972411      0.3081809474
   4       1.1785525134      0.7202719637
 P 1 
   1       0.4164220497      1.0000000000
 P 1 
   1       0.1426082601      1.0000000000
 D 1 
   1       1.6540000000      1.0000000000
 D 1 
   1       0.4690000000      1.0000000000
 F 1 
   1       1.0930000000      1.0000000000
  end;

---------------------------------
AUXILIARY/J BASIS SET INFORMATION
---------------------------------
There are 3 groups of distinct atoms

 Group   1 Type C   : 12s5p4d2f1g contracted to 6s4p3d1f1g pattern {711111/2111/211/2/1}
 Group   2 Type H   : 5s2p1d contracted to 3s1p1d pattern {311/2/1}
 Group   3 Type N   : 12s5p4d2f1g contracted to 6s4p3d1f1g pattern {711111/2111/211/2/1}

Atom   0C    basis set group =>   1
Atom   1C    basis set group =>   1
Atom   2H    basis set group =>   2
Atom   3H    basis set group =>   2
Atom   4C    basis set group =>   1
Atom   5C    basis set group =>   1
Atom   6H    basis set group =>   2
Atom   7H    basis set group =>   2
Atom   8C    basis set group =>   1
Atom   9N    basis set group =>   3
Atom  10H    basis set group =>   2
Atom  11C    basis set group =>   1
Atom  12H    basis set group =>   2
Atom  13H    basis set group =>   2

-------------------------------------
AUXILIARY/J BASIS SET IN INPUT FORMAT
-------------------------------------

 # Auxiliary/J basis set for element : H 
 NewAuxJGTO H 
 S 3 
   1      15.6752927000      0.1007184237
   2       3.6063578000      0.3404257499
   3       1.2080016000      0.6491996172
 S 1 
   1       0.4726794000      1.0000000000
 S 1 
   1       0.2018100000      1.0000000000
 P 2 
   1       2.0281365000      0.5596620919
   2       0.5358730000      0.5596620919
 D 1 
   1       2.2165124000      1.0000000000
  end;

 # Auxiliary/J basis set for element : C 
 NewAuxJGTO C 
 S 7 
   1    1861.0916331000      0.0134602335
   2     642.9939764000      0.0299160374
   3     235.1105725000      0.1008649584
   4      90.7028894000      0.2370970548
   5      36.7794552000      0.3924037254
   6      15.6046273000      0.3195862154
   7       6.8907294000      0.0530104441
 S 1 
   1       3.1478850000     -1.0000000000
 S 1 
   1       1.4777287000      1.0000000000
 S 1 
   1       0.7076466000      1.0000000000
 S 1 
   1       0.3430122000      1.0000000000
 S 1 
   1       0.1669453000      1.0000000000
 P 2 
   1      13.5472892000     -0.6769313712
   2       5.4669419000     -0.3779500978
 P 1 
   1       2.1751721000      1.0000000000
 P 1 
   1       0.8582194000      1.0000000000
 P 1 
   1       0.3376720000      1.0000000000
 D 2 
   1       5.9287253000     -0.3533329857
   2       1.9809209000     -0.7456525731
 D 1 
   1       0.8055417000     -1.0000000000
 D 1 
   1       0.3531244000     -1.0000000000
 F 2 
   1       1.6755626000      0.6311076882
   2       0.5997536000      0.4968166032
 G 1 
   1       1.0024600000     -1.0000000000
  end;

 # Auxiliary/J basis set for element : N 
 NewAuxJGTO N 
 S 7 
   1    2542.9401785000      0.0128431329
   2    1029.5472946000      0.0206655120
   3     424.9053546000      0.0652200677
   4     178.4573708000      0.1617388940
   5      76.1362742000      0.3094256941
   6      32.9338653000      0.3918849307
   7      14.4155436000      0.1822470660
 S 1 
   1       6.3718891000     -1.0000000000
 S 1 
   1       2.8381742000      1.0000000000
 S 1 
   1       1.2711793000      1.0000000000
 S 1 
   1       0.5712407000      1.0000000000
 S 1 
   1       0.2569887000      1.0000000000
 P 2 
   1      17.8975990000     -1.0974070137
   2       6.5346319000      0.1380055963
 P 1 
   1       2.3523645000      1.0000000000
 P 1 
   1       0.8397377000      1.0000000000
 P 1 
   1       0.2989335000      1.0000000000
 D 2 
   1       7.6909870000      0.1770780943
   2       2.3044972000      0.8918319220
 D 1 
   1       0.8403987000      1.0000000000
 D 1 
   1       0.3303797000      1.0000000000
 F 2 
   1       2.3331076000      0.6223178877
   2       0.8446137000      0.5036714203
 G 1 
   1       1.4037700000     -1.0000000000
  end;

------------------------------------------------------------------------------
                             ORCA STARTUP CALCULATIONS
                           -- RI-GTO INTEGRALS CHOSEN --
------------------------------------------------------------------------------
------------------------------------------------------------------------------
                   ___                                                        
                  /   \      - P O W E R E D   B Y -                         
                 /     \                                                     
                 |  |  |   _    _      __       _____    __    __             
                 |  |  |  | |  | |    /  \     |  _  \  |  |  /  |          
                  \  \/   | |  | |   /    \    | | | |  |  | /  /          
                 / \  \   | |__| |  /  /\  \   | |_| |  |  |/  /          
                |  |  |   |  __  | /  /__\  \  |    /   |      \           
                |  |  |   | |  | | |   __   |  |    \   |  |\   \          
                \     /   | |  | | |  |  |  |  | |\  \  |  | \   \       
                 \___/    |_|  |_| |__|  |__|  |_| \__\ |__|  \__/        
                                                                              
                      - O R C A' S   B I G   F R I E N D -                    
                                      &                                       
                       - I N T E G R A L  F E E D E R -                       
                                                                              
 v1 FN, 2020, v2 2021, v3 2022-2024                                           
------------------------------------------------------------------------------


----------------------
SHARK INTEGRAL PACKAGE
----------------------

Number of atoms                             ...     14
Number of basis functions                   ...    259
Number of shells                            ...    105
Maximum angular momentum                    ...      3
Integral batch strategy                     ... SHARK/LIBINT Hybrid
RI-J (if used) integral strategy            ... SPLIT-RIJ (Revised 2003 algorithm where possible)
Printlevel                                  ...      1
Contraction scheme used                     ... SEGMENTED contraction
Prescreening option                         ... SCHWARTZ
   Thresh                                   ... 1.000e-10
   Tcut                                     ... 1.000e-11
   Tpresel                                  ... 1.000e-11 
Coulomb Range Separation                    ... NOT USED
Exchange Range Separation                   ... NOT USED
Multipole approximations                    ... NOT USED
Finite Nucleus Model                        ... NOT USED
CABS basis                                  ... NOT available
Auxiliary Coulomb fitting basis             ... AVAILABLE
   # of basis functions in Aux-J            ...    420
   # of shells in Aux-J                     ...    140
   Maximum angular momentum in Aux-J        ...      4
Auxiliary J/K fitting basis                 ... NOT available
Auxiliary Correlation fitting basis         ... NOT available
Auxiliary 'external' fitting basis          ... NOT available

Checking pre-screening integrals            ... done (  0.0 sec) Dimension = 105
   => SHARK Basis and OBASIS are compatible. Storing Pre-screening
Shell pair information
Shell pair cut-off parameter TPreSel        ...   1.0e-11
Total number of shell pairs                 ...      5565
Shell pairs after pre-screening             ...      5220
Total number of primitive shell pairs       ...     16828
Primitive shell pairs kept                  ...     12172
          la=0 lb=0:   1429 shell pairs
          la=1 lb=0:   1475 shell pairs
          la=1 lb=1:    392 shell pairs
          la=2 lb=0:    748 shell pairs
          la=2 lb=1:    383 shell pairs
          la=2 lb=2:    102 shell pairs
          la=3 lb=0:    373 shell pairs
          la=3 lb=1:    193 shell pairs
          la=3 lb=2:     97 shell pairs
          la=3 lb=3:     28 shell pairs

Checking whether 4 symmetric matrices of dimension 259 fit in memory
:Max Core in MB      =  16384.00
 MB in use           =      8.58
 MB left             =  16375.42
 MB needed           =      1.03
 Data fit in memory  = YES
Calculating RI/J V-Matrix + Cholesky decomp.... done (  0.0 sec)
Calculating Nuclear repulsion               ... done (  0.0 sec) ENN=    271.405264920352 Eh

Diagonalization of the overlap matrix:
Smallest eigenvalue                        ... 1.133e-05
Time for diagonalization                   ...    0.004 sec
Threshold for overlap eigenvalues          ... 1.000e-07
Number of eigenvalues below threshold      ... 0
Time for construction of square roots      ...    0.000 sec
Total time needed                          ...    0.004 sec

-------------------
DFT GRID GENERATION
-------------------

General Integration Accuracy     IntAcc      ... 4.388
Radial Grid Type                 RadialGrid  ... OptM3 with GC (2021)
Angular Grid (max. ang.)         AngularGrid ... 4 (Lebedev-302)
Angular grid pruning method      GridPruning ... 4 (adaptive)
Weight generation scheme         WeightScheme... mBecke (2022)
Basis function cutoff            BFCut       ... 1.0000e-10
Integration weight cutoff        WCut        ... 1.0000e-14
Partially contracted basis set               ... off
Rotationally invariant grid construction     ... off
Angular grids for H and He will be reduced by one unit

Total number of grid points                  ...    64707
Total number of batches                      ...     1020
Average number of points per batch           ...       63
Average number of grid points per atom       ...     4622
Grids setup in   0.3 sec
Initializing property integral containers    ... done (  0.0 sec)

SHARK setup successfully completed in   0.3 seconds

Maximum memory used throughout the entire STARTUP-calculation: 36.0 MB
-------------------------------------------------------------------------------
                                 ORCA GUESS
                   Start orbitals & Density for SCF / CASSCF
-------------------------------------------------------------------------------

------------
SCF SETTINGS
------------
Hamiltonian:
 Density Functional     Method          .... DFT(GTOs)
 Exchange Functional    Exchange        .... PBE
   PBE kappa parameter   XKappa         ....  1.245000
   PBE mue parameter    XMuePBE         ....  0.219520
 Correlation Functional Correlation     .... PBE
   PBE beta parameter  CBetaPBE         ....  0.066725
 LDA part of GGA corr.  LDAOpt          .... PW91-LDA
 Gradients option       PostSCFGGA      .... off
   NL short-range parameter             ....  3.700000
 RI-approximation to the Coulomb term is turned on
   Number of AuxJ basis functions       .... 420


General Settings:
 Integral files         IntName         .... job
 Hartree-Fock type      HFTyp           .... RHF
 Total Charge           Charge          ....    0
 Multiplicity           Mult            ....    1
 Number of Electrons    NEL             ....   50
 Basis Dimension        Dim             ....  259
 Nuclear Repulsion      ENuc            ....    271.4052649204 Eh

Convergence Acceleration:
 AO-DIIS                CNVDIIS         .... on
   Start iteration      DIISMaxIt       ....    12
   Startup error        DIISStart       ....  0.200000
   # of expansion vecs  DIISMaxEq       ....     5
   Bias factor          DIISBfac        ....   1.050
   Max. coefficient     DIISMaxC        ....  10.000
 MO-DIIS                CNVKDIIS        .... off
 Trust-Rad. Augm. Hess. CNVTRAH         .... auto
   Auto Start mean grad. ratio tolernc. ....  1.125000
   Auto Start start iteration           ....    50
   Auto Start num. interpolation iter.  ....    10
   Max. Number of Micro iterations      ....    24
   Max. Number of Macro iterations      .... Maxiter - #DIIS iter
   Number of Davidson start vectors     ....     2
   Converg. threshold    (grad. norm)   ....   5.000e-05
   Grad. Scal. Fac. for Micro threshold ....   0.100
   Minimum threshold for Micro iter.    ....   1.000e-02
   NR start threshold (gradient norm)   ....   1.000e-04
   Initial trust radius                 ....   0.400
   Minimum AH scaling param. (alpha)    ....   1.000
   Maximum AH scaling param. (alpha)    .... 1000.000
   Quad. conv. algorithm                .... NR
   White noise on init. David. guess    .... on
   Maximum white noise                  ....   0.010
   Pseudo random numbers                .... off
   Inactive MOs                         .... canonical
   Orbital update algorithm             .... Taylor
   Preconditioner                       .... Diag
   Full preconditioner red. dimension   ....   250
 SOSCF                 CNVSOSCF           .... on
   Start iteration     SOSCFMaxIt         ....   150
   Startup grad/error  SOSCFStart         ....  0.003300
   Hessian update      SOSCFHessUp        .... L-BFGS
   Autom. constraints  SOSCFAutoConstrain .... off
 Level Shifting         CNVShift        .... on
   Level shift para.    LevelShift      ....    0.2500
   Turn off err/grad.   ShiftErr        ....    0.0010
 Zerner damping         CNVZerner       .... off
 Static damping         CNVDamp         .... on
   Fraction old density DampFac         ....    0.7000
   Max. Damping (<1)    DampMax         ....    0.9800
   Min. Damping (>=0)   DampMin         ....    0.0000
   Turn off err/grad.   DampErr         ....    0.1000

SCF Procedure:
 Maximum # iterations   MaxIter         ....   125
 SCF integral mode      SCFMode         .... Direct
   Integral package                     .... SHARK and LIBINT hybrid scheme
 Reset frequency        DirectResetFreq ....    20
 Integral Threshold     Thresh          ....  1.000e-10 Eh
 Primitive CutOff       TCut            ....  1.000e-11 Eh

Convergence Tolerance:
 Convergence Check Mode ConvCheckMode   .... Total+1el-Energy
 Convergence forced     ConvForced      .... 0
 Energy Change          TolE            ....  1.000e-06 Eh
 1-El. energy change                    ....  1.000e-03 Eh
 Orbital Gradient       TolG            ....  5.000e-05
 Orbital Rotation angle TolX            ....  5.000e-05
 DIIS Error             TolErr          ....  1.000e-06

------------------------------
INITIAL GUESS: MODEL POTENTIAL
------------------------------
Loading Hartree-Fock densities                     ... done
Calculating cut-offs                               ... done
Initializing the effective Hamiltonian             ... done
Setting up the integral package (SHARK)            ... done
Starting the Coulomb interaction                   ... done (   0.1 sec)
Making the grid                                    ... done (   0.1 sec)
Mapping shells                                     ... done
Starting the XC term evaluation                    ... done (   0.2 sec)
  promolecular density results
     # of electrons  =     49.996186281
     EX              =    -39.558863882
     EC              =     -1.643675274
     EX+EC           =    -41.202539156
Transforming the Hamiltonian                       ... done (   0.0 sec)
Diagonalizing the Hamiltonian                      ... done (   0.0 sec)
Back transforming the eigenvectors                 ... done (   0.0 sec)
Now organizing SCF variables                       ... done
                      ------------------
                      INITIAL GUESS DONE (   0.3 sec)
                      ------------------
             **** ENERGY FILE WAS UPDATED (job.en.tmp) ****
Finished Guess after   0.3 sec
Maximum memory used throughout the entire GUESS-calculation: 21.5 MB

-------------------------------------------------------------------------------------------
                                      ORCA LEAN-SCF
                              memory conserving SCF solver
-------------------------------------------------------------------------------------------

----------------------------------------D-I-I-S--------------------------------------------
Iteration    Energy (Eh)           Delta-E    RMSDP     MaxDP     DIISErr   Damp  Time(sec)
-------------------------------------------------------------------------------------------
               ***  Starting incremental Fock matrix formation  ***
    1    -287.4432296864212049     0.00e+00  2.02e-03  5.07e-02  2.29e-01  0.700   0.7
    2    -287.5349641903820839    -9.17e-02  1.61e-03  4.47e-02  9.73e-02  0.700   0.7
                               ***Turning on AO-DIIS***
    3    -287.5671881826471008    -3.22e-02  5.38e-04  1.08e-02  2.13e-02  0.700   0.6
    4    -287.5860360082230045    -1.88e-02  7.95e-04  1.48e-02  1.02e-02  0.000   0.6
    5    -287.6289093761486129    -4.29e-02  3.71e-04  1.08e-02  1.09e-02  0.000   0.6
                              *** Initializing SOSCF ***
---------------------------------------S-O-S-C-F--------------------------------------
Iteration    Energy (Eh)           Delta-E    RMSDP     MaxDP     MaxGrad    Time(sec)
--------------------------------------------------------------------------------------
    6    -287.6293642544893601    -4.55e-04  1.62e-04  4.79e-03  1.52e-03     0.6
               *** Restarting incremental Fock matrix formation ***
    7    -287.6293924558659683    -2.82e-05  1.04e-04  2.03e-03  2.80e-04     0.7
    8    -287.6293881646705586     4.29e-06  3.11e-05  7.54e-04  6.23e-04     0.6
    9    -287.6293954803985571    -7.32e-06  1.93e-05  3.09e-04  1.51e-04     0.5
   10    -287.6293949006084176     5.80e-07  8.29e-06  1.91e-04  2.16e-04     0.6
                 **** Energy Check signals convergence ****

               *****************************************************
               *                     SUCCESS                       *
               *           SCF CONVERGED AFTER  10 CYCLES          *
               *****************************************************

             **** ENERGY FILE WAS UPDATED (job.en.tmp) ****

----------------
TOTAL SCF ENERGY
----------------

Total Energy       :       -287.62939572860284 Eh           -7826.79376 eV

Components:
Nuclear Repulsion  :        271.40526492035247 Eh            7385.31272 eV
Electronic Energy  :       -559.03466064895531 Eh          -15212.10648 eV
One Electron Energy:       -924.80639444799885 Eh          -25165.26137 eV
Two Electron Energy:        365.77173379904355 Eh            9953.15489 eV

Virial components:
Potential Energy   :       -574.09307286104945 Eh          -15621.86671 eV
Kinetic Energy     :        286.46367713244661 Eh            7795.07295 eV
Virial Ratio       :          2.00406934173235

DFT components:
N(Alpha)           :       25.000007509030 electrons
N(Beta)            :       25.000007509030 electrons
N(Total)           :       50.000015018061 electrons
E(X)               :      -40.416853524136 Eh       
E(C)               :       -1.651154168119 Eh       
E(XC)              :      -42.068007692254 Eh       

---------------
SCF CONVERGENCE
---------------

  Last Energy change         ...   -5.7979e-07  Tolerance :   1.0000e-06
  Last MAX-Density change    ...    1.9066e-04  Tolerance :   1.0000e-05
  Last RMS-Density change    ...    8.2933e-06  Tolerance :   1.0000e-06
  Last DIIS Error            ...    1.5153e-03  Tolerance :   1.0000e-06
  Last Orbital Gradient      ...    2.1575e-04  Tolerance :   5.0000e-05
  Last Orbital Rotation      ...    3.4319e-04  Tolerance :   5.0000e-05


----------------
ORBITAL ENERGIES
----------------

  NO   OCC          E(Eh)            E(eV) 
   0   2.0000     -14.002096      -381.0164 
   1   2.0000      -9.928801      -270.1764 
   2   2.0000      -9.889442      -269.1054 
   3   2.0000      -9.889436      -269.1052 
   4   2.0000      -9.885960      -269.0107 
   5   2.0000      -9.885947      -269.0103 
   6   2.0000      -9.879698      -268.8402 
   7   2.0000      -0.840650       -22.8753 
   8   2.0000      -0.758156       -20.6305 
   9   2.0000      -0.669359       -18.2142 
  10   2.0000      -0.653817       -17.7913 
  11   2.0000      -0.549172       -14.9437 
  12   2.0000      -0.533935       -14.5291 
  13   2.0000      -0.468915       -12.7598 
  14   2.0000      -0.455835       -12.4039 
  15   2.0000      -0.420654       -11.4466 
  16   2.0000      -0.380728       -10.3601 
  17   2.0000      -0.376249       -10.2382 
  18   2.0000      -0.364661        -9.9229 
  19   2.0000      -0.339256        -9.2316 
  20   2.0000      -0.305895        -8.3238 
  21   2.0000      -0.294666        -8.0183 
  22   2.0000      -0.272858        -7.4249 
  23   2.0000      -0.220426        -5.9981 
  24   2.0000      -0.179792        -4.8924 
  25   0.0000      -0.033912        -0.9228 
  26   0.0000      -0.017674        -0.4809 
  27   0.0000       0.014160         0.3853 
  28   0.0000       0.037726         1.0266 
  29   0.0000       0.048927         1.3314 
  30   0.0000       0.078485         2.1357 
  31   0.0000       0.080113         2.1800 
  32   0.0000       0.107051         2.9130 
  33   0.0000       0.110526         3.0076 
  34   0.0000       0.111897         3.0449 
  35   0.0000       0.133434         3.6309 
*Only the first 10 virtual orbitals were printed.
------------------
MOLECULAR ORBITALS (RHF, ROHF)
------------------
                      0         1         2         3         4         5   
                 -14.00210  -9.92880  -9.88944  -9.88944  -9.88596  -9.88595
                   2.00000   2.00000   2.00000   2.00000   2.00000   2.00000
                  --------  --------  --------  --------  --------  --------
  0C   1s         0.000004  0.000040  0.381822 -0.269294  0.016826 -0.017176
  0C   2s        -0.000023  0.000032  0.494953 -0.349163  0.021763 -0.021995
  0C   3s        -0.000582 -0.000811  0.033303 -0.023714  0.001492 -0.002630
  0C   4s         0.007292  0.008236 -0.001659  0.010390 -0.012180  0.006992
  0C   5s        -0.005504 -0.026464  0.025273 -0.028253  0.008984 -0.017228
  0C   1pz       -0.000009  0.000014 -0.000003  0.000021 -0.000017 -0.000005
  0C   1px        0.000037  0.000005  0.000440 -0.000575  0.000093 -0.000330
  0C   1py       -0.000010  0.000256 -0.000511  0.000051  0.000261 -0.000197
  0C   2pz        0.000125 -0.000112 -0.000205 -0.000273  0.000230  0.000069
  0C   2px        0.000418  0.000563  0.007342  0.006738 -0.004527  0.004317
  0C   2py       -0.003074 -0.008442  0.001055  0.007464 -0.001461  0.005515
  0C   3pz       -0.000057  0.000280 -0.000055  0.000170 -0.000025  0.000006
  0C   3px       -0.005088 -0.005825  0.004870 -0.004347  0.000173 -0.002774
  0C   3py        0.001505  0.004767 -0.001767  0.003349 -0.002359  0.003570
  0C   1dz2      -0.000070 -0.000074 -0.001331  0.000806 -0.000142  0.000294
  0C   1dxz       0.000021 -0.000027 -0.000025  0.000002 -0.000005  0.000017
  0C   1dyz      -0.000016  0.000011 -0.000018  0.000020 -0.000005 -0.000007
  0C   1dx2y2    -0.000023 -0.000013 -0.000092  0.000119 -0.000237  0.000268
  0C   1dxy      -0.000086  0.000014  0.000248 -0.000153  0.000007 -0.000029
  0C   2dz2      -0.000625 -0.000774 -0.000864  0.000183  0.000437 -0.000036
  0C   2dxz      -0.000047  0.000134 -0.000130 -0.000048  0.000119 -0.000105
  0C   2dyz      -0.000038  0.000059 -0.000053  0.000056 -0.000069 -0.000110
  0C   2dx2y2    -0.000882 -0.002615  0.001462  0.003610 -0.002242  0.004629
  0C   2dxy       0.000591 -0.001484  0.001781  0.002110 -0.002036  0.000124
  0C   1f0       -0.000005  0.000014  0.000011  0.000017 -0.000029 -0.000006
  0C   1f+1      -0.000029 -0.000001  0.000082 -0.000366  0.000184 -0.000145
  0C   1f-1       0.000025  0.000248 -0.000249 -0.000042  0.000521 -0.000659
  0C   1f+2      -0.000014  0.000018 -0.000004  0.000017 -0.000034 -0.000033
  0C   1f-2      -0.000018 -0.000000 -0.000019  0.000001  0.000000 -0.000014
  0C   1f+3       0.000048  0.000070 -0.000137  0.000059 -0.000077  0.000118
  0C   1f-3      -0.000062  0.000061 -0.001119  0.000900 -0.000570  0.000780
  1C   1s         0.000021 -0.001896  0.020280 -0.012746 -0.309095  0.350492
  1C   2s        -0.000123 -0.002703  0.026391 -0.016781 -0.400586  0.454350
  1C   3s         0.002775  0.001459  0.001500 -0.000119 -0.027425  0.031372
  1C   4s        -0.013370 -0.015630  0.012711 -0.002313 -0.001271 -0.012826
  1C   5s         0.002277  0.045491 -0.020351  0.019116 -0.013342  0.024585
  1C   1pz        0.000032  0.000017 -0.000017 -0.000014  0.000025  0.000050
  1C   1px        0.000163 -0.000012 -0.000170  0.000272 -0.000386  0.000721
  1C   1py       -0.000075  0.000383  0.000406 -0.000328 -0.000295  0.000142
  1C   2pz       -0.000232 -0.000086  0.000328  0.000089 -0.000600 -0.000091
  1C   2px       -0.003420 -0.000255  0.009586 -0.004347 -0.012175 -0.002506
  1C   2py       -0.000355 -0.006812 -0.010172  0.011855  0.007828  0.000491
  1C   3pz       -0.000191  0.000054 -0.000096 -0.000051  0.000054 -0.000178
  1C   3px        0.000599  0.016264 -0.004293  0.003165 -0.000808  0.001999
  1C   3py       -0.003389  0.007637 -0.001855  0.004940 -0.001411 -0.000194
  1C   1dz2       0.000008 -0.000222  0.000040 -0.000206  0.001178 -0.001135
  1C   1dxz       0.000036  0.000005  0.000005 -0.000011  0.000000  0.000053
  1C   1dyz       0.000014 -0.000054 -0.000005 -0.000036  0.000025  0.000024
  1C   1dx2y2    -0.000128  0.000157  0.000255 -0.000239  0.000162 -0.000186
  1C   1dxy       0.000056 -0.000271 -0.000120  0.000014  0.000319 -0.000229
  1C   2dz2       0.002014  0.001133 -0.000416  0.000030  0.000604 -0.000171
  1C   2dxz      -0.000221 -0.000052  0.000205  0.000118 -0.000390 -0.000062
  1C   2dyz      -0.000105  0.000302 -0.000064  0.000179 -0.000008 -0.000275
  1C   2dx2y2     0.001714  0.002843  0.005891 -0.005129 -0.004654 -0.001328
  1C   2dxy       0.001003 -0.003569 -0.003603  0.002312  0.002835 -0.000059
  1C   1f0        0.000024 -0.000005 -0.000026 -0.000013  0.000046  0.000029
  1C   1f+1       0.000203 -0.000495 -0.000200  0.000060 -0.000026  0.000339
  1C   1f-1      -0.000075  0.000511  0.000779 -0.000688 -0.000186  0.000077
  1C   1f+2      -0.000031 -0.000026  0.000005  0.000022  0.000003  0.000015
  1C   1f-2      -0.000028 -0.000018 -0.000038 -0.000005  0.000051 -0.000040
  1C   1f+3      -0.000139  0.000181  0.000002 -0.000048 -0.000037  0.000239
  1C   1f-3      -0.000078  0.000796 -0.000611  0.000557 -0.001000  0.001175
  2H   1s         0.000094  0.000108  0.000304  0.000733  0.000203 -0.000014
  2H   2s        -0.000217  0.000545 -0.000492  0.001779 -0.000315 -0.001586
  2H   3s        -0.002139 -0.000346  0.000874  0.001449  0.000685  0.000554
  2H   1pz       -0.000013  0.000023  0.000048  0.000108 -0.000003 -0.000006
  2H   1px        0.000005 -0.000119 -0.000821 -0.001902 -0.000262 -0.000068
  2H   1py        0.000039 -0.000249 -0.000655 -0.000798  0.000391  0.000445
  3H   1s         0.000030  0.000097  0.000012 -0.000068 -0.000013 -0.000203
  3H   2s         0.000717  0.001061 -0.000376  0.002183 -0.000094 -0.001506
  3H   3s         0.000188  0.000718  0.000180 -0.001055 -0.000001 -0.000045
  3H   1pz       -0.000015  0.000022 -0.000030  0.000009  0.000003 -0.000022
  3H   1px       -0.000006 -0.000005  0.000948  0.000151 -0.000158  0.000025
  3H   1py       -0.000142 -0.000152  0.000026 -0.000359  0.000032  0.000415
  4C   1s         0.000004  0.000083  0.002121 -0.012298 -0.000092 -0.001467
  4C   2s        -0.000020 -0.000015  0.002813 -0.016309 -0.000117 -0.001862
  4C   3s         0.000624  0.000849  0.000005 -0.000024  0.000036  0.000565
  4C   4s        -0.002889  0.001711  0.002415 -0.013991 -0.000729 -0.011555
  4C   5s         0.010691  0.019124 -0.005122  0.029544  0.000772  0.012140
  4C   1pz        0.000003  0.000009  0.000021  0.000005 -0.000009  0.000010
  4C   1px       -0.000001 -0.000005 -0.000726 -0.000128  0.000320 -0.000025
  4C   1py       -0.000040 -0.000148  0.000039 -0.000065 -0.000020 -0.000128
  4C   2pz        0.000036 -0.000101 -0.000522 -0.000105  0.000288 -0.000004
  4C   2px        0.000012 -0.000037  0.017889  0.003174 -0.009776  0.000880
  4C   2py        0.000222 -0.001041 -0.001053  0.002206  0.000804  0.007100
  4C   3pz        0.000011  0.000007 -0.000147 -0.000068 -0.000012 -0.000014
  4C   3px       -0.000115 -0.000245  0.005324  0.000655  0.000358 -0.000125
  4C   3py       -0.003468 -0.006460  0.001019 -0.007000 -0.000201 -0.002898
  4C   1dz2      -0.000020 -0.000071  0.000058 -0.000332  0.000008  0.000130
  4C   1dxz      -0.000001 -0.000003 -0.000009 -0.000025  0.000004  0.000005
  4C   1dyz      -0.000024  0.000016  0.000012  0.000018 -0.000001 -0.000020
  4C   1dx2y2    -0.000041  0.000017 -0.000075  0.000218 -0.000000  0.000009
  4C   1dxy       0.000002 -0.000001 -0.000485 -0.000100 -0.000014 -0.000000
  4C   2dz2       0.000639 -0.000038 -0.000033  0.000223  0.000037  0.000600
  4C   2dxz       0.000038 -0.000047 -0.000069 -0.000052  0.000022  0.000039
  4C   2dyz       0.000068 -0.000027  0.000284  0.000037 -0.000108  0.000052
  4C   2dx2y2    -0.000104  0.001488 -0.000990  0.001577  0.000259 -0.000270
  4C   2dxy       0.000008 -0.000111 -0.009510 -0.001770  0.003755 -0.000218
  4C   1f0       -0.000002  0.000001  0.000088  0.000027 -0.000015  0.000007
  4C   1f+1       0.000000  0.000001 -0.001252 -0.000200  0.000212 -0.000019
  4C   1f-1       0.000005  0.000041 -0.000025  0.000406 -0.000017 -0.000148
  4C   1f+2       0.000001  0.000006 -0.000057 -0.000016  0.000009  0.000007
  4C   1f-2      -0.000003  0.000004  0.000038  0.000072 -0.000010 -0.000000
  4C   1f+3      -0.000009  0.000007 -0.000124  0.000117 -0.000021  0.000021
  4C   1f-3      -0.000078  0.000064 -0.000202  0.001225  0.000014  0.000183
  5C   1s         0.000011 -0.467995 -0.000015  0.000085 -0.000179 -0.002833
  5C   2s        -0.000050 -0.606343 -0.000009  0.000050 -0.000210 -0.003329
  5C   3s        -0.003382 -0.044330  0.000206 -0.001192 -0.000053 -0.000854
  5C   4s         0.019589  0.027554 -0.003564  0.020652  0.000357  0.005879
  5C   5s        -0.013195 -0.055205  0.002397 -0.013766 -0.001573 -0.025163
  5C   1pz        0.000031  0.000206  0.000013  0.000025 -0.000024  0.000034
  5C   1px       -0.000003  0.000005 -0.000549 -0.000108  0.000894 -0.000051
  5C   1py       -0.000120 -0.000009  0.000084 -0.000366 -0.000025  0.000115
  5C   2pz       -0.001121  0.000697 -0.000409 -0.000561  0.000650 -0.000382
  5C   2px       -0.000239  0.000277  0.016565  0.003407 -0.022829  0.001305
  5C   2py       -0.005488  0.006648 -0.003155  0.014668  0.000656 -0.002742
  5C   3pz        0.000977  0.000936  0.000147  0.000252  0.000108  0.000925
  5C   3px        0.000547 -0.001165 -0.006232 -0.001412 -0.001654  0.000361
  5C   3py        0.015341 -0.033705  0.001847 -0.009252  0.000463  0.006586
  5C   1dz2      -0.000072  0.001722  0.000039 -0.000214  0.000022  0.000447
  5C   1dxz       0.000003  0.000075 -0.000038 -0.000018  0.000117  0.000020
  5C   1dyz       0.000013 -0.000162  0.000006 -0.000018  0.000004  0.000041
  5C   1dx2y2    -0.000210  0.000228  0.000002 -0.000034 -0.000016 -0.000093
  5C   1dxy       0.000016 -0.000021 -0.000030 -0.000003 -0.000184  0.000019
  5C   2dz2      -0.004349 -0.001276  0.000187 -0.001043 -0.000013 -0.000106
  5C   2dxz      -0.000161 -0.000136 -0.000113 -0.000264  0.000185  0.000168
  5C   2dyz       0.000682 -0.000205 -0.000097 -0.000801  0.000468  0.000347
  5C   2dx2y2    -0.001226  0.002099 -0.000333  0.005375 -0.001475 -0.005714
  5C   2dxy       0.000109 -0.000156  0.008013  0.000966 -0.015263  0.001385
  5C   1f0        0.000073 -0.000153  0.000034 -0.000005 -0.000096 -0.000013
  5C   1f+1       0.000011 -0.000025 -0.000436 -0.000089  0.001319 -0.000069
  5C   1f-1       0.000089 -0.000544  0.000106 -0.000501 -0.000020  0.000648
  5C   1f+2      -0.000040 -0.000126  0.000002 -0.000135  0.000096  0.000195
  5C   1f-2      -0.000002  0.000031 -0.000052 -0.000020  0.000273  0.000046
  5C   1f+3      -0.000026  0.000147  0.000095  0.000032  0.000073  0.000131
  5C   1f-3      -0.000254  0.001293 -0.000025  0.000094  0.000064  0.001293
  6H   1s         0.000237  0.000242 -0.000072  0.000077  0.000104 -0.000009
  6H   2s        -0.000919  0.001873  0.000069  0.000370 -0.000060 -0.000916
  6H   3s        -0.001853 -0.000628  0.000101 -0.000080  0.000143  0.000606
  6H   1pz        0.000153 -0.000164  0.000012 -0.000111  0.000039  0.000141
  6H   1px        0.000521 -0.000153  0.000009  0.000006 -0.000016  0.000058
  6H   1py       -0.000322  0.000386  0.000023  0.000031  0.000098 -0.000096
  7H   1s         0.000236  0.000240  0.000043  0.000095 -0.000105  0.000007
  7H   2s        -0.000919  0.001865 -0.000192  0.000322 -0.000043 -0.000911
  7H   3s        -0.001845 -0.000626 -0.000068 -0.000109 -0.000065  0.000619
  7H   1pz        0.000187 -0.000174  0.000025 -0.000108 -0.000019  0.000148
  7H   1px       -0.000533  0.000167  0.000009 -0.000009 -0.000030 -0.000050
  7H   1py       -0.000284  0.000372 -0.000033  0.000021 -0.000104 -0.000078
  8C   1s         0.000004  0.000041 -0.269338 -0.381790 -0.018850 -0.014952
  8C   2s        -0.000023  0.000032 -0.349113 -0.494986 -0.024354 -0.019120
  8C   3s        -0.000584 -0.000813 -0.023416 -0.033514 -0.001811 -0.002424
  8C   4s         0.007302  0.008246 -0.001924  0.010349  0.012968  0.005424
  8C   5s        -0.005511 -0.026467 -0.014290 -0.035087 -0.011098 -0.015970
  8C   1pz       -0.000006  0.000014 -0.000017 -0.000020  0.000010 -0.000025
  8C   1px       -0.000038  0.000014  0.000255  0.000704  0.000113  0.000302
  8C   1py       -0.000007  0.000256  0.000446  0.000169 -0.000292 -0.000185
  8C   2pz        0.000154 -0.000063 -0.000243  0.000027  0.000068  0.000304
  8C   2px       -0.000630 -0.001178  0.008899 -0.003396 -0.004867 -0.003305
  8C   2py       -0.003045 -0.008393 -0.004158  0.006945  0.002496  0.005531
  8C   3pz       -0.000358 -0.000067 -0.000187 -0.000162 -0.000010 -0.000164
  8C   3px        0.005197  0.006147  0.003141  0.005982  0.000727  0.002960
  8C   3py        0.001113  0.004348  0.000303  0.003323  0.002751  0.003034
  8C   1dz2      -0.000068 -0.000077  0.000980  0.001201  0.000178  0.000275
  8C   1dxz      -0.000028  0.000021  0.000073  0.000103 -0.000005 -0.000003
  8C   1dyz      -0.000019  0.000010 -0.000003  0.000008  0.000005 -0.000008
  8C   1dx2y2    -0.000012 -0.000014  0.000074  0.000177  0.000267  0.000237
  8C   1dxy       0.000087 -0.000011  0.000174  0.000205 -0.000028 -0.000007
  8C   2dz2      -0.000630 -0.000766  0.000756  0.000467 -0.000443  0.000022
  8C   2dxz       0.000036 -0.000064  0.000076 -0.000108 -0.000060 -0.000168
  8C   2dyz      -0.000009 -0.000030 -0.000117  0.000166  0.000183 -0.000105
  8C   2dx2y2    -0.000960 -0.002382 -0.002216  0.002676  0.002480  0.004279
  8C   2dxy      -0.000457  0.001851  0.002733 -0.001792 -0.002413 -0.000500
  8C   1f0       -0.000009  0.000013 -0.000011 -0.000041  0.000002 -0.000025
  8C   1f+1       0.000031  0.000019 -0.000028  0.000369  0.000156  0.000078
  8C   1f-1       0.000021  0.000246  0.000249  0.000014 -0.000612 -0.000597
  8C   1f+2      -0.000013  0.000017 -0.000004  0.000059  0.000044 -0.000028
  8C   1f-2       0.000018  0.000025  0.000061  0.000077 -0.000012  0.000015
  8C   1f+3      -0.000060 -0.000056  0.000057  0.000164  0.000052  0.000049
  8C   1f-3      -0.000052  0.000073  0.000756  0.001213  0.000667  0.000708
  9N   1s         0.449331  0.000015  0.000001 -0.000005  0.000001  0.000012
  9N   2s         0.625345  0.000125 -0.000010  0.000056 -0.000008 -0.000135
  9N   3s         0.040184 -0.002337  0.000236 -0.001367  0.000108  0.001719
  9N   4s        -0.037994  0.007429 -0.001402  0.008127 -0.000556 -0.008848
  9N   5s         0.031138 -0.017956  0.001018 -0.005842  0.000848  0.013806
  9N   1pz        0.001268  0.000000  0.000010 -0.000039 -0.000009  0.000028
  9N   1px        0.000086 -0.000026 -0.000092 -0.000026  0.000374 -0.000011
  9N   1py        0.001207 -0.000724  0.000047 -0.000251  0.000007  0.000322
  9N   2pz       -0.001204 -0.000049 -0.000097  0.000415  0.000072 -0.000193
  9N   2px       -0.000332  0.000205  0.000816  0.000321 -0.002899  0.000033
  9N   2py       -0.008005  0.005821 -0.000804  0.004475 -0.000142 -0.003986
  9N   3pz        0.001910 -0.001753  0.000057 -0.000413  0.000041  0.000548
  9N   3px        0.000213 -0.000206  0.000543  0.000029 -0.000335  0.000183
  9N   3py        0.003903 -0.004040  0.000212 -0.001330  0.000254  0.003882
  9N   1dz2      -0.000289 -0.000142  0.000024 -0.000132  0.000003  0.000109
  9N   1dxz      -0.000017 -0.000009 -0.000022 -0.000011  0.000064  0.000003
  9N   1dyz      -0.000066  0.000056  0.000000  0.000009 -0.000007 -0.000000
  9N   1dx2y2    -0.000056  0.000092 -0.000006  0.000015  0.000010 -0.000045
  9N   1dxy       0.000002 -0.000005 -0.000031 -0.000006  0.000148 -0.000006
  9N   2dz2       0.001289 -0.000797  0.000006 -0.000078  0.000013 -0.000174
  9N   2dxz      -0.000015  0.000090  0.000122  0.000067 -0.000428 -0.000013
  9N   2dyz      -0.000453  0.000452 -0.000056  0.000205  0.000062 -0.000130
  9N   2dx2y2     0.002122 -0.003746  0.000276 -0.001356 -0.000096  0.000873
  9N   2dxy      -0.000168  0.000289  0.000491  0.000196 -0.001846  0.000046
  9N   1f0       -0.000012 -0.000007 -0.000003  0.000016 -0.000003 -0.000049
  9N   1f+1       0.000002 -0.000006  0.000005  0.000004  0.000011 -0.000006
  9N   1f-1       0.000246 -0.000705  0.000002 -0.000014 -0.000001 -0.000033
  9N   1f+2       0.000116 -0.000401  0.000012 -0.000054 -0.000011  0.000003
  9N   1f-2       0.000000  0.000030  0.000008  0.000010 -0.000034  0.000004
  9N   1f+3      -0.000014  0.000119  0.000025  0.000021 -0.000243  0.000026
  9N   1f-3      -0.000086  0.000942 -0.000025  0.000124  0.000034  0.000101
 10H   1s        -0.000002 -0.000153  0.000097  0.000081  0.000433 -0.000635
 10H   2s         0.000206  0.002774 -0.000894  0.001735 -0.000023 -0.001783
 10H   3s        -0.000320  0.002783  0.000373 -0.000544  0.001669 -0.002738
 10H   1pz       -0.000016  0.000051  0.000012  0.000050 -0.000033 -0.000060
 10H   1px        0.000164  0.000572  0.000139  0.000100  0.000969 -0.001754
 10H   1py       -0.000144 -0.000388 -0.000671  0.000532  0.000859 -0.000786
 11C   1s         0.000021 -0.001898 -0.014837 -0.018825  0.350423  0.309173
 11C   2s        -0.000123 -0.002705 -0.019243 -0.024680  0.454160  0.400800
 11C   3s         0.002774  0.001466 -0.001374 -0.000616  0.031126  0.027703
 11C   4s        -0.013372 -0.015674 -0.011202 -0.006453 -0.000329 -0.012873
 11C   5s         0.002333  0.045451  0.012719  0.024821  0.016330  0.022740
 11C   1pz        0.000042  0.000016  0.000026  0.000012  0.000008  0.000091
 11C   1px       -0.000166  0.000040 -0.000087 -0.000345 -0.000450 -0.000654
 11C   1py       -0.000062  0.000381 -0.000266 -0.000421  0.000344  0.000152
 11C   2pz       -0.000431 -0.000088 -0.000796 -0.000485  0.001293 -0.000400
 11C   2px        0.003363 -0.000235  0.007931  0.008345 -0.012253  0.004068
 11C   2py       -0.000614 -0.006816  0.005042  0.014015 -0.006839  0.001149
 11C   3pz       -0.000146  0.000990  0.000281  0.000233 -0.000017 -0.000055
 11C   3px       -0.000897 -0.015608 -0.002941 -0.004011 -0.000955 -0.001919
 11C   3py       -0.003368  0.008835  0.000293  0.005587  0.001464 -0.000244
 11C   1dz2       0.000011 -0.000219  0.000031 -0.000208 -0.001303 -0.000970
 11C   1dxz      -0.000026 -0.000042  0.000015  0.000008 -0.000132 -0.000141
 11C   1dyz       0.000019 -0.000067  0.000022 -0.000030 -0.000037  0.000023
 11C   1dx2y2    -0.000137  0.000193 -0.000174 -0.000315 -0.000136 -0.000141
 11C   1dxy      -0.000035  0.000242 -0.000083 -0.000010  0.000367  0.000211
 11C   2dz2       0.001987  0.001136  0.000345  0.000151 -0.000565 -0.000111
 11C   2dxz       0.000321  0.000000  0.000509  0.000407 -0.000719  0.000191
 11C   2dyz      -0.000059  0.000102  0.000111  0.000348 -0.000133 -0.000276
 11C   2dx2y2     0.001571  0.003337 -0.004145 -0.007216  0.004783 -0.001906
 11C   2dxy      -0.001245  0.003125 -0.002035 -0.002350  0.002144 -0.000028
 11C   1f0        0.000053 -0.000078  0.000055  0.000019 -0.000033  0.000081
 11C   1f+1      -0.000199  0.000524 -0.000196 -0.000190 -0.000059 -0.000320
 11C   1f-1      -0.000062  0.000468 -0.000485 -0.000896  0.000190  0.000070
 11C   1f+2      -0.000037  0.000026 -0.000034  0.000008  0.000013 -0.000013
 11C   1f-2       0.000019  0.000122 -0.000052 -0.000043  0.000154  0.000115
 11C   1f+3       0.000121 -0.000005  0.000072  0.000202  0.000181 -0.000001
 11C   1f-3      -0.000109  0.000810  0.000386  0.000704  0.001118  0.001062
 12H   1s         0.000094  0.000108 -0.000533  0.000589 -0.000204  0.000012
 12H   2s        -0.000215  0.000545 -0.000132  0.001841  0.000112 -0.001611
 12H   3s        -0.002133 -0.000349 -0.001306  0.001072 -0.000611  0.000636
 12H   1pz       -0.000013  0.000017 -0.000001 -0.000001  0.000018 -0.000013
 12H   1px       -0.000003  0.000102 -0.001345  0.001475 -0.000275  0.000136
 12H   1py        0.000039 -0.000257  0.000986 -0.000642 -0.000312  0.000482
 13H   1s        -0.000002 -0.000153 -0.000119  0.000043 -0.000509 -0.000576
 13H   2s         0.000206  0.002776  0.000257  0.001933 -0.000196 -0.001772
 13H   3s        -0.000309  0.002784 -0.000174 -0.000638 -0.001996 -0.002509
 13H   1pz       -0.000006  0.000085 -0.000039  0.000044 -0.000042 -0.000157
 13H   1px       -0.000175 -0.000595  0.000195  0.000008  0.001107  0.001559
 13H   1py       -0.000132 -0.000346  0.000440  0.000728 -0.001034 -0.000789
                      6         7         8         9        10        11   
                  -9.87970  -0.84065  -0.75816  -0.66936  -0.65382  -0.54917
                   2.00000   2.00000   2.00000   2.00000   2.00000   2.00000
                  --------  --------  --------  --------  --------  --------
  0C   1s        -0.008978 -0.008917  0.047350  0.053051  0.027350 -0.044154
  0C   2s        -0.011378 -0.018540  0.098965  0.111463  0.057527 -0.093575
  0C   3s        -0.001518  0.027648 -0.151469 -0.174907 -0.090413  0.149462
  0C   4s         0.010087  0.021799 -0.141752 -0.156682 -0.084308  0.173369
  0C   5s        -0.019693 -0.050290 -0.019970 -0.025853 -0.044302 -0.007611
  0C   1pz       -0.000016 -0.000087  0.000916 -0.000225  0.001549 -0.000757
  0C   1px        0.000200  0.007263 -0.041234  0.009163 -0.043200 -0.000325
  0C   1py        0.000519 -0.010105  0.020420  0.042533 -0.063141  0.061913
  0C   2pz        0.000275 -0.000249  0.000604 -0.000589  0.001182 -0.000624
  0C   2px       -0.005808  0.005125 -0.028380  0.012196 -0.028134 -0.006865
  0C   2py       -0.013123 -0.004209  0.009408  0.021020 -0.047617  0.030366
  0C   3pz        0.000122  0.000416 -0.000016  0.000227  0.000223  0.000798
  0C   3px       -0.005284 -0.011983  0.001103  0.008334 -0.019633 -0.005097
  0C   3py       -0.000424  0.011780  0.001010  0.011067 -0.005433  0.027753
  0C   1dz2       0.000289 -0.001169  0.005606  0.005247  0.002614 -0.003763
  0C   1dxz       0.000025 -0.000056  0.000190  0.000049  0.000208 -0.000087
  0C   1dyz       0.000006  0.000003  0.000087  0.000111  0.000067 -0.000029
  0C   1dx2y2    -0.000262 -0.000442 -0.000094  0.003666 -0.004207  0.001704
  0C   1dxy      -0.000307 -0.000121 -0.000843 -0.001019 -0.003690  0.000889
  0C   2dz2      -0.000039 -0.001345  0.005719  0.003762  0.001967 -0.003329
  0C   2dxz       0.000134  0.000085  0.000213 -0.000116  0.000226 -0.000011
  0C   2dyz       0.000009  0.000039  0.000123  0.000211  0.000071  0.000179
  0C   2dx2y2    -0.005960  0.000083 -0.001744  0.004672 -0.008192 -0.003158
  0C   2dxy      -0.004767 -0.001265 -0.001885 -0.000362 -0.006721  0.000747
  0C   1f0       -0.000052  0.000020 -0.000067  0.000034 -0.000090  0.000071
  0C   1f+1       0.000715 -0.000194  0.001264 -0.000243  0.000902  0.000020
  0C   1f-1       0.000652  0.000410 -0.000533 -0.000872  0.001293 -0.000702
  0C   1f+2       0.000017  0.000007  0.000074  0.000051  0.000021  0.000076
  0C   1f-2       0.000056  0.000013  0.000048  0.000052  0.000070 -0.000039
  0C   1f+3       0.000005 -0.000108  0.000208 -0.000062  0.000847  0.000515
  0C   1f-3       0.000977 -0.000469  0.002069  0.002600  0.001329 -0.002274
  1C   1s         0.000603 -0.021300  0.038653  0.055942 -0.035241  0.035611
  1C   2s         0.000817 -0.044145  0.080833  0.117472 -0.074172  0.075350
  1C   3s         0.000188  0.064372 -0.124221 -0.181132  0.117691 -0.116620
  1C   4s        -0.005878  0.062826 -0.112887 -0.180132  0.101571 -0.154016
  1C   5s         0.004374  0.077903 -0.021559 -0.035724  0.059527 -0.001043
  1C   1pz        0.000007  0.000023  0.000127 -0.000791  0.000328 -0.001988
  1C   1px       -0.000097  0.024653 -0.031891  0.004860  0.042486 -0.008656
  1C   1py        0.000379 -0.016119 -0.034432 -0.036260 -0.046757  0.098497
  1C   2pz        0.000046  0.000188  0.000211  0.000115 -0.000034 -0.000566
  1C   2px        0.001922  0.015435 -0.016731  0.013277  0.022897 -0.005600
  1C   2py       -0.014131 -0.008652 -0.030142 -0.030065 -0.034298  0.058802
  1C   3pz       -0.000117  0.000125 -0.000163 -0.001097 -0.000268 -0.002029
  1C   3px        0.000072  0.030272 -0.003256 -0.002818  0.025108  0.001705
  1C   3py        0.000033  0.021846 -0.000609  0.006947 -0.004663  0.040569
  1C   1dz2       0.000089 -0.002700  0.004720  0.005617 -0.003510  0.003151
  1C   1dxz       0.000018 -0.000020 -0.000028 -0.000187  0.000080 -0.000241
  1C   1dyz       0.000020 -0.000034  0.000049  0.000021  0.000077  0.000035
  1C   1dx2y2     0.000026 -0.000131  0.000407  0.003675  0.003614 -0.002751
  1C   1dxy      -0.000025 -0.002049 -0.000522  0.000707 -0.003546  0.002234
  1C   2dz2       0.000048 -0.003910  0.003611  0.006274 -0.001494  0.005277
  1C   2dxz      -0.000050  0.000231 -0.000033  0.000219 -0.000140  0.000205
  1C   2dyz      -0.000121  0.000219  0.000058  0.000244 -0.000016  0.000533
  1C   2dx2y2     0.004083 -0.003671  0.002102  0.011591  0.007263  0.005198
  1C   2dxy      -0.003143 -0.003444 -0.002763 -0.000091 -0.005932  0.003348
  1C   1f0        0.000008 -0.000051 -0.000011 -0.000020 -0.000013 -0.000006
  1C   1f+1      -0.000042 -0.000918  0.000778 -0.000172 -0.000740  0.000227
  1C   1f-1       0.000334  0.000482  0.001236  0.000866  0.000836 -0.001573
  1C   1f+2      -0.000007  0.000037 -0.000039 -0.000025  0.000041 -0.000005
  1C   1f-2      -0.000007  0.000032  0.000023 -0.000051  0.000042 -0.000028
  1C   1f+3       0.000027  0.000838  0.000149 -0.000977 -0.000804 -0.001713
  1C   1f-3       0.000147  0.000545 -0.001811 -0.002744  0.001786 -0.001605
  2H   1s         0.000076  0.003195 -0.023344  0.040490 -0.022652 -0.057745
  2H   2s        -0.001413  0.002525 -0.024718  0.043266 -0.025498 -0.067209
  2H   3s         0.000948 -0.001920  0.001039  0.005015 -0.006454 -0.012432
  2H   1pz       -0.000022  0.000046 -0.000228  0.000306 -0.000221 -0.000395
  2H   1px        0.000450 -0.000479  0.004384 -0.005331  0.004459  0.007936
  2H   1py       -0.000586 -0.000489  0.002033 -0.004291 -0.000410  0.002163
  3H   1s        -0.000772  0.002334 -0.023661  0.000004 -0.048926 -0.000050
  3H   2s        -0.001144  0.003108 -0.024957  0.000009 -0.052393 -0.000063
  3H   3s        -0.002133  0.002181  0.001707 -0.000000 -0.004654 -0.000015
  3H   1pz       -0.000031  0.000027 -0.000033 -0.000070 -0.000055  0.000137
  3H   1px        0.000083 -0.000024  0.000178  0.002383  0.000287 -0.004679
  3H   1py        0.002290 -0.000663  0.004895 -0.000088  0.007867  0.000179
  4C   1s         0.467759 -0.006849  0.048859  0.000001  0.061204  0.000029
  4C   2s         0.606371 -0.014232  0.102058  0.000001  0.128680  0.000063
  4C   3s         0.040957  0.021316 -0.155493  0.000000 -0.201015 -0.000094
  4C   4s        -0.007459  0.018942 -0.142815 -0.000011 -0.191755 -0.000172
  4C   5s         0.034490  0.038131 -0.023125 -0.000039  0.009378 -0.000084
  4C   1pz       -0.000006 -0.000034  0.000488 -0.002242  0.000979  0.003854
  4C   1px       -0.000033 -0.000347  0.001758  0.076565  0.000461 -0.131843
  4C   1py       -0.000892 -0.009506  0.047964 -0.002788  0.012211  0.004776
  4C   2pz       -0.000091 -0.000114  0.000177 -0.001639  0.000575  0.002626
  4C   2px       -0.000110 -0.000224  0.001074  0.056002  0.000039 -0.089898
  4C   2py       -0.003251 -0.006275  0.029579 -0.002035  0.000171  0.003280
  4C   3pz       -0.000089  0.000081 -0.000037 -0.000530  0.000138  0.000397
  4C   3px       -0.000215 -0.000537 -0.000050  0.018057 -0.000482 -0.013676
  4C   3py       -0.005892 -0.014200 -0.000908 -0.000648 -0.014014  0.000525
  4C   1dz2      -0.001596 -0.000912  0.005868  0.000003  0.006059 -0.000003
  4C   1dxz      -0.000091 -0.000043  0.000322 -0.000051  0.000397  0.000103
  4C   1dyz      -0.000015  0.000024 -0.000025  0.000168 -0.000031 -0.000175
  4C   1dx2y2     0.000341 -0.000082 -0.000843 -0.000416 -0.003085  0.000430
  4C   1dxy      -0.000025  0.000006  0.000062 -0.005662  0.000225  0.005840
  4C   2dz2      -0.000909 -0.001102  0.005615  0.000004  0.005065 -0.000003
  4C   2dxz      -0.000076 -0.000071  0.000309 -0.000053  0.000388  0.000250
  4C   2dyz       0.000072 -0.000069  0.000044  0.000318  0.000012 -0.000194
  4C   2dx2y2     0.001084  0.000409 -0.000789 -0.000782 -0.004444  0.000455
  4C   2dxy      -0.000081 -0.000034  0.000064 -0.010782  0.000313  0.006340
  4C   1f0        0.000019  0.000009 -0.000027  0.000125 -0.000063 -0.000143
  4C   1f+1      -0.000011  0.000013 -0.000053 -0.001736 -0.000011  0.001989
  4C   1f-1      -0.000305  0.000340 -0.001381  0.000063 -0.000168 -0.000073
  4C   1f+2       0.000016 -0.000003  0.000006 -0.000055  0.000002  0.000132
  4C   1f-2       0.000041  0.000023 -0.000143  0.000014 -0.000121 -0.000006
  4C   1f+3       0.000171  0.000023 -0.000241  0.000694 -0.000343  0.001122
  4C   1f-3       0.001563  0.000202 -0.002177 -0.000077 -0.003117 -0.000125
  5C   1s         0.000049 -0.055428  0.020763 -0.000001 -0.052585  0.000037
  5C   2s         0.000184 -0.115689  0.043376 -0.000000 -0.110861  0.000079
  5C   3s         0.000398  0.179964 -0.061507 -0.000020  0.171135 -0.000167
  5C   4s        -0.014311  0.156648 -0.094196  0.000114  0.193472  0.000066
  5C   5s        -0.001946 -0.047681 -0.002150  0.000023 -0.037037  0.000026
  5C   1pz       -0.000003 -0.005688  0.002488 -0.002770 -0.008019 -0.005008
  5C   1px        0.000000 -0.002425 -0.003022  0.093988  0.002258  0.168722
  5C   1py        0.000007 -0.062180 -0.084906 -0.003408  0.068410 -0.006073
  5C   2pz        0.000430 -0.000868  0.002946 -0.002123 -0.005685 -0.003063
  5C   2px       -0.000247 -0.000847 -0.001912  0.071995  0.001021  0.102762
  5C   2py       -0.007005 -0.020180 -0.054473 -0.002579  0.034401 -0.003631
  5C   3pz        0.000254  0.001712 -0.000280  0.000162  0.003620 -0.000165
  5C   3px        0.000184 -0.002338  0.000491 -0.005592 -0.000807  0.005268
  5C   3py        0.004847 -0.069052  0.012561  0.000266 -0.023474 -0.000019
  5C   1dz2       0.000167 -0.007846  0.002164  0.000032 -0.004791  0.000061
  5C   1dxz       0.000009 -0.000208  0.000219 -0.000630 -0.000390 -0.001097
  5C   1dyz       0.000023  0.000552  0.000338 -0.000126  0.000361 -0.000031
  5C   1dx2y2    -0.000000 -0.005864 -0.003297  0.000353  0.005410  0.000153
  5C   1dxy       0.000001  0.000445  0.000250  0.005063 -0.000382  0.002484
  5C   2dz2       0.001045 -0.006083  0.006273 -0.000035 -0.008735 -0.000098
  5C   2dxz       0.000185 -0.000377  0.000419  0.000256 -0.000593  0.001149
  5C   2dyz       0.000300 -0.001651  0.000030 -0.000480  0.000626 -0.000005
  5C   2dx2y2    -0.004071  0.000150 -0.003224  0.001199  0.005532  0.000019
  5C   2dxy       0.000304 -0.000108  0.000233  0.016098 -0.000416 -0.000811
  5C   1f0       -0.000010  0.000297 -0.000358  0.000149  0.000746  0.000174
  5C   1f+1       0.000005  0.000066  0.000052 -0.002057  0.000018 -0.002361
  5C   1f-1       0.000244  0.001106  0.001986  0.000080 -0.000583  0.000082
  5C   1f+2       0.000075 -0.000047 -0.000103 -0.000068  0.000343 -0.000110
  5C   1f-2       0.000013 -0.000065  0.000141 -0.000125 -0.000185  0.000053
  5C   1f+3       0.000018 -0.000375  0.000128  0.001021 -0.000416 -0.000115
  5C   1f-3       0.000191 -0.003431  0.001106 -0.000110 -0.003640  0.000008
  6H   1s        -0.000044  0.068645  0.037114  0.008676 -0.047091  0.041795
  6H   2s        -0.000226  0.062930  0.033165  0.011482 -0.045900  0.054532
  6H   3s         0.000280  0.004438  0.005647  0.001082 -0.009493  0.011002
  6H   1pz        0.000065 -0.002789 -0.001338 -0.000806  0.001680 -0.003254
  6H   1px       -0.000001 -0.010155 -0.005586 -0.000642  0.007296 -0.003192
  6H   1py        0.000002  0.007364  0.002493  0.001562 -0.001023  0.005577
  7H   1s        -0.000043  0.068636  0.037112 -0.008669 -0.047087 -0.041680
  7H   2s        -0.000225  0.062903  0.033157 -0.011485 -0.045902 -0.054400
  7H   3s         0.000280  0.004429  0.005638 -0.001083 -0.009473 -0.010966
  7H   1pz        0.000065 -0.003461 -0.001704  0.000855  0.002152  0.003474
  7H   1px        0.000006  0.010455  0.005654 -0.000701 -0.007227 -0.003351
  7H   1py        0.000002  0.006608  0.002082 -0.001513 -0.000495 -0.005335
  8C   1s        -0.008983 -0.008918  0.047350 -0.053048  0.027355  0.044131
  8C   2s        -0.011384 -0.018542  0.098965 -0.111456  0.057539  0.093525
  8C   3s        -0.001516  0.027672 -0.151481  0.174904 -0.090439 -0.149400
  8C   4s         0.010067  0.021674 -0.141723  0.156632 -0.084281 -0.173186
  8C   5s        -0.019694 -0.050193 -0.019963  0.025981 -0.044276  0.007945
  8C   1pz       -0.000005  0.000357 -0.001530 -0.000232 -0.000848  0.000883
  8C   1px       -0.000162 -0.007972  0.042596  0.006049  0.038517 -0.004696
  8C   1py        0.000532 -0.009552  0.017365 -0.043087 -0.066113 -0.061829
  8C   2pz       -0.000040  0.000055 -0.001069 -0.000089 -0.000376  0.001064
  8C   2px        0.004855 -0.005410  0.028953  0.010648  0.024643 -0.008981
  8C   2py       -0.013519 -0.003771  0.007332 -0.021844 -0.049593 -0.029810
  8C   3pz       -0.000186 -0.000298  0.000045 -0.000688 -0.000909 -0.000439
  8C   3px        0.005239  0.012744 -0.001041  0.007446  0.019211 -0.007174
  8C   3py       -0.000810  0.010884  0.001107 -0.011666 -0.006906 -0.027419
  8C   1dz2       0.000289 -0.001169  0.005597 -0.005235  0.002611  0.003746
  8C   1dxz       0.000018 -0.000038  0.000383 -0.000269  0.000282  0.000387
  8C   1dyz      -0.000013 -0.000006  0.000028 -0.000056 -0.000169 -0.000043
  8C   1dx2y2    -0.000215 -0.000417  0.000034 -0.003780 -0.003624 -0.001554
  8C   1dxy       0.000342  0.000184  0.000850 -0.000481  0.004260  0.001132
  8C   2dz2      -0.000040 -0.001312  0.005699 -0.003738  0.001952  0.003307
  8C   2dxz       0.000180 -0.000229  0.000460 -0.000234  0.000416  0.000123
  8C   2dyz      -0.000293 -0.000018 -0.000006 -0.000191 -0.000358 -0.000205
  8C   2dx2y2    -0.005207  0.000269 -0.001428 -0.004675 -0.007149  0.003239
  8C   2dxy       0.005576  0.001237  0.002137  0.000305  0.007844  0.000252
  8C   1f0        0.000047 -0.000009  0.000116 -0.000003  0.000034 -0.000075
  8C   1f+1      -0.000664  0.000222 -0.001296 -0.000175 -0.000806  0.000064
  8C   1f-1       0.000702  0.000394 -0.000439  0.000886  0.001351  0.000691
  8C   1f+2      -0.000038  0.000030 -0.000044 -0.000092 -0.000101 -0.000005
  8C   1f-2       0.000078 -0.000013  0.000054 -0.000041  0.000160  0.000189
  8C   1f+3       0.000208  0.000004  0.000245 -0.000619 -0.000535  0.000999
  8C   1f-3       0.000954 -0.000478  0.002066 -0.002524  0.001477  0.002100
  9N   1s         0.000002 -0.082368 -0.035923  0.000007  0.031028  0.000002
  9N   2s        -0.000022 -0.183813 -0.080557  0.000016  0.069850  0.000004
  9N   3s         0.000535  0.269260  0.121425 -0.000019 -0.106333  0.000009
  9N   4s        -0.004043  0.358782  0.153372 -0.000056 -0.144645 -0.000070
  9N   5s         0.005440  0.032635  0.060291  0.000054 -0.061507  0.000147
  9N   1pz        0.000017  0.043150  0.023218 -0.000774 -0.029197 -0.003367
  9N   1px        0.000003  0.002776  0.000321  0.025113  0.001619  0.107786
  9N   1py        0.000083  0.037536 -0.011992 -0.000929  0.070746 -0.004087
  9N   2pz       -0.000210  0.036200  0.019411 -0.000653 -0.024200 -0.002583
  9N   2px       -0.000077  0.002739  0.000430  0.021515  0.000973  0.083231
  9N   2py       -0.001958  0.043256 -0.005553 -0.000802  0.048658 -0.003159
  9N   3pz        0.000209  0.001573  0.004577 -0.000149 -0.007789 -0.000741
  9N   3px        0.000064 -0.000173  0.000270  0.005211  0.000213  0.024431
  9N   3py        0.001602 -0.005534  0.003757 -0.000175  0.012387 -0.000884
  9N   1dz2       0.000072 -0.004786 -0.001471 -0.000031  0.000525 -0.000149
  9N   1dxz       0.000004 -0.000263 -0.000136  0.000571  0.000183  0.002697
  9N   1dyz      -0.000003 -0.000777 -0.000811 -0.000040  0.001691 -0.000114
  9N   1dx2y2    -0.000011 -0.001091  0.000696  0.000070 -0.002750  0.000138
  9N   1dxy       0.000001  0.000053 -0.000078  0.000689  0.000256  0.000591
  9N   2dz2      -0.000107 -0.009483 -0.003400 -0.000045  0.001325 -0.000171
  9N   2dxz      -0.000026 -0.000276 -0.000218  0.000882  0.000271  0.003262
  9N   2dyz      -0.000101  0.000073 -0.001201 -0.000196  0.003331 -0.000422
  9N   2dx2y2     0.000545 -0.007988 -0.000557  0.000428 -0.002284  0.000828
  9N   2dxy      -0.000044  0.000580 -0.000002  0.005456  0.000278  0.009858
  9N   1f0       -0.000017 -0.002138 -0.001056  0.000032  0.001210  0.000106
  9N   1f+1      -0.000003 -0.000271 -0.000113 -0.000423  0.000091 -0.001385
  9N   1f-1      -0.000025 -0.001830 -0.000242  0.000011 -0.000538  0.000048
  9N   1f+2       0.000020  0.000651  0.000387  0.000015 -0.000270 -0.000002
  9N   1f-2      -0.000004 -0.000001  0.000019  0.000114 -0.000060  0.000124
  9N   1f+3      -0.000004  0.000356  0.000151  0.000749 -0.000134  0.001597
  9N   1f-3      -0.000031  0.003485  0.001514 -0.000087 -0.001321 -0.000180
[...]
      f-1     :     0.000571
      f+2     :     0.000819
      f-2     :     0.000499
      f+3     :     0.002181
      f-3     :     0.000887

  2 H s       :     0.898318  s :     0.898318
      pz      :     0.005071  p :     0.021764
      px      :     0.010803
      py      :     0.005890

  3 H s       :     0.900832  s :     0.900832
      pz      :     0.005479  p :     0.021947
      px      :     0.003988
      py      :     0.012480

  4 C s       :     3.150377  s :     3.150377
      pz      :     1.008373  p :     2.856731
      px      :     0.921684
      py      :     0.926675
      dz2     :     0.004631  d :     0.089214
      dxz     :     0.021440
      dyz     :     0.005051
      dx2y2   :     0.037975
      dxy     :     0.020117
      f0      :     0.001500  f :     0.007018
      f+1     :     0.000530
      f-1     :     0.000657
      f+2     :     0.000173
      f-2     :     0.001130
      f+3     :     0.002225
      f-3     :     0.000802

  5 C s       :     2.993763  s :     2.993763
      pz      :     0.902361  p :     2.563025
      px      :     0.876545
      py      :     0.784119
      dz2     :     0.006149  d :     0.153593
      dxz     :     0.023379
      dyz     :     0.042367
      dx2y2   :     0.041297
      dxy     :     0.040401
      f0      :     0.001982  f :     0.012691
      f+1     :     0.000594
      f-1     :     0.001114
      f+2     :     0.002017
      f-2     :     0.001122
      f+3     :     0.004415
      f-3     :     0.001447

  6 H s       :     0.747415  s :     0.747415
      pz      :     0.013181  p :     0.036263
      px      :     0.013782
      py      :     0.009300

  7 H s       :     0.747282  s :     0.747282
      pz      :     0.013515  p :     0.036257
      px      :     0.014125
      py      :     0.008617

  8 C s       :     3.156807  s :     3.156807
      pz      :     0.961559  p :     2.825021
      px      :     0.936270
      py      :     0.927192
      dz2     :     0.004306  d :     0.092437
      dxz     :     0.008565
      dyz     :     0.022178
      dx2y2   :     0.025085
      dxy     :     0.032303
      f0      :     0.001481  f :     0.007126
      f+1     :     0.000616
      f-1     :     0.000556
      f+2     :     0.000940
      f-2     :     0.000519
      f+3     :     0.002199
      f-3     :     0.000816

  9 N s       :     3.463345  s :     3.463345
      pz      :     1.667620  p :     3.894590
      px      :     1.115874
      py      :     1.111097
      dz2     :     0.003310  d :     0.040431
      dxz     :     0.005369
      dyz     :     0.012237
      dx2y2   :     0.006659
      dxy     :     0.012856
      f0      :     0.000670  f :     0.002694
      f+1     :     0.000203
      f-1     :     0.000412
      f+2     :     0.000225
      f-2     :     0.000184
      f+3     :     0.000470
      f-3     :     0.000531

 10 H s       :     0.913590  s :     0.913590
      pz      :     0.005567  p :     0.022021
      px      :     0.010859
      py      :     0.005595

 11 C s       :     3.238764  s :     3.238764
      pz      :     1.040524  p :     2.872541
      px      :     0.910702
      py      :     0.921315
      dz2     :     0.005519  d :     0.085570
      dxz     :     0.008976
      dyz     :     0.016931
      dx2y2   :     0.021450
      dxy     :     0.032694
      f0      :     0.001482  f :     0.007106
      f+1     :     0.000662
      f-1     :     0.000573
      f+2     :     0.000924
      f-2     :     0.000397
      f+3     :     0.002206
      f-3     :     0.000863

 12 H s       :     0.898310  s :     0.898310
      pz      :     0.005053  p :     0.021760
      px      :     0.010274
      py      :     0.006433

 13 H s       :     0.913634  s :     0.913634
      pz      :     0.005589  p :     0.022018
      px      :     0.010317
      py      :     0.006112



                     *******************************
                     * LOEWDIN POPULATION ANALYSIS *
                     *******************************

----------------------
LOEWDIN ATOMIC CHARGES
----------------------
   0 C :   -0.143115
   1 C :   -0.134395
   2 H :    0.139740
   3 H :    0.137505
   4 C :   -0.166410
   5 C :   -0.252063
   6 H :    0.160884
   7 H :    0.160955
   8 C :   -0.143119
   9 N :   -0.040970
  10 H :    0.137864
  11 C :   -0.134471
  12 H :    0.139747
  13 H :    0.137846

-------------------------------
LOEWDIN REDUCED ORBITAL CHARGES
-------------------------------
  0 C s       :     2.769951  s :     2.769951
      pz      :     0.883950  p :     2.937487
      px      :     1.011463
      py      :     1.042075
      dz2     :     0.025444  d :     0.392689
      dxz     :     0.032206
      dyz     :     0.069084
      dx2y2   :     0.115310
      dxy     :     0.150644
      f0      :     0.002966  f :     0.042988
      f+1     :     0.003547
      f-1     :     0.004037
      f+2     :     0.007118
      f-2     :     0.002635
      f+3     :     0.014977
      f-3     :     0.007708

  1 C s       :     2.763494  s :     2.763494
      pz      :     0.936484  p :     2.958249
      px      :     0.983216
      py      :     1.038550
      dz2     :     0.026353  d :     0.370728
      dxz     :     0.024252
      dyz     :     0.059958
      dx2y2   :     0.116045
      dxy     :     0.144120
      f0      :     0.003133  f :     0.041923
      f+1     :     0.003592
      f-1     :     0.004145
      f+2     :     0.005449
      f-2     :     0.003304
      f+3     :     0.014387
      f-3     :     0.007914

  2 H s       :     0.801608  s :     0.801608
      pz      :     0.013645  p :     0.058651
      px      :     0.028939
      py      :     0.016067

  3 H s       :     0.803179  s :     0.803179
      pz      :     0.014775  p :     0.059316
      px      :     0.011170
      py      :     0.033370

  4 C s       :     2.767224  s :     2.767224
      pz      :     0.921352  p :     2.970856
      px      :     1.065980
      py      :     0.983523
      dz2     :     0.026064  d :     0.385336
      dxz     :     0.075300
      dyz     :     0.013327
      dx2y2   :     0.166982
      dxy     :     0.103663
      f0      :     0.003154  f :     0.042995
      f+1     :     0.004424
      f-1     :     0.003294
      f+2     :     0.001322
      f-2     :     0.007485
      f+3     :     0.015457
      f-3     :     0.007859

  5 C s       :     2.714349  s :     2.714349
      pz      :     0.849722  p :     2.827157
      px      :     1.068607
      py      :     0.908828
      dz2     :     0.039100  d :     0.633344
      dxz     :     0.079277
      dyz     :     0.142626
      dx2y2   :     0.203008
      dxy     :     0.169332
      f0      :     0.005248  f :     0.077213
      f+1     :     0.004506
      f-1     :     0.006677
      f+2     :     0.014206
      f-2     :     0.007732
      f+3     :     0.027048
      f-3     :     0.011795

  6 H s       :     0.731412  s :     0.731412
      pz      :     0.038928  p :     0.107703
      px      :     0.044433
      py      :     0.024342

  7 H s       :     0.731347  s :     0.731347
      pz      :     0.040388  p :     0.107697
      px      :     0.044884
      py      :     0.022425

  8 C s       :     2.769954  s :     2.769954
      pz      :     0.884157  p :     2.937485
      px      :     1.005775
      py      :     1.047553
      dz2     :     0.025373  d :     0.392692
      dxz     :     0.027531
      dyz     :     0.074023
      dx2y2   :     0.123789
      dxy     :     0.141976
      f0      :     0.002988  f :     0.042988
      f+1     :     0.003448
      f-1     :     0.004104
      f+2     :     0.006206
      f-2     :     0.003559
      f+3     :     0.014963
      f-3     :     0.007718

  9 N s       :     3.033707  s :     3.033707
      pz      :     1.547875  p :     3.855674
      px      :     1.135598
      py      :     1.172200
      dz2     :     0.007368  d :     0.141220
      dxz     :     0.013760
      dyz     :     0.031575
      dx2y2   :     0.031505
      dxy     :     0.057012
      f0      :     0.001131  f :     0.010368
      f+1     :     0.000283
      f-1     :     0.001226
      f+2     :     0.001952
      f-2     :     0.001504
      f+3     :     0.002434
      f-3     :     0.001839

 10 H s       :     0.802431  s :     0.802431
      pz      :     0.015217  p :     0.059705
      px      :     0.029049
      py      :     0.015438

 11 C s       :     2.763487  s :     2.763487
      pz      :     0.936906  p :     2.958300
      px      :     0.986229
      py      :     1.035165
      dz2     :     0.026470  d :     0.370760
      dxz     :     0.028258
      dyz     :     0.056682
      dx2y2   :     0.109182
      dxy     :     0.150167
      f0      :     0.003182  f :     0.041924
      f+1     :     0.003632
      f-1     :     0.004050
      f+2     :     0.006198
      f-2     :     0.002625
      f+3     :     0.014449
      f-3     :     0.007788

 12 H s       :     0.801603  s :     0.801603
      pz      :     0.013594  p :     0.058650
      px      :     0.027565
      py      :     0.017491

 13 H s       :     0.802454  s :     0.802454
      pz      :     0.015268  p :     0.059700
      px      :     0.027647
      py      :     0.016785



                      *****************************
                      * MAYER POPULATION ANALYSIS *
                      *****************************

  NA   - Mulliken gross atomic population
  ZA   - Total nuclear charge
  QA   - Mulliken gross atomic charge
  VA   - Mayer's total valence
  BVA  - Mayer's bonded valence
  FA   - Mayer's free valence

  ATOM       NA         ZA         QA         VA         BVA        FA
  0 C      6.0815     6.0000    -0.0815     4.0200     4.0200    -0.0000
  1 C      6.2043     6.0000    -0.2043     4.0438     4.0438    -0.0000
  2 H      0.9201     1.0000     0.0799     0.9643     0.9643    -0.0000
  3 H      0.9228     1.0000     0.0772     0.9651     0.9651     0.0000
  4 C      6.1033     6.0000    -0.1033     3.9574     3.9574    -0.0000
  5 C      5.7231     6.0000     0.2769     3.8641     3.8641     0.0000
  6 H      0.7837     1.0000     0.2163     0.9541     0.9541    -0.0000
  7 H      0.7835     1.0000     0.2165     0.9540     0.9540    -0.0000
  8 C      6.0814     6.0000    -0.0814     4.0207     4.0207    -0.0000
  9 N      7.4011     7.0000    -0.4011     3.0474     3.0474    -0.0000
 10 H      0.9356     1.0000     0.0644     0.9792     0.9792    -0.0000
 11 C      6.2040     6.0000    -0.2040     4.0440     4.0440    -0.0000
 12 H      0.9201     1.0000     0.0799     0.9643     0.9643    -0.0000
 13 H      0.9357     1.0000     0.0643     0.9791     0.9791     0.0000

  Mayer bond orders larger than 0.100000
B(  0-C ,  1-C ) :   1.4654 B(  0-C ,  4-C ) :   1.4155 B(  0-C , 12-H ) :   0.9658 
B(  1-C ,  5-C ) :   1.3720 B(  1-C , 10-H ) :   0.9765 B(  2-H ,  8-C ) :   0.9659 
B(  3-H ,  4-C ) :   0.9649 B(  4-C ,  8-C ) :   1.4158 B(  5-C ,  9-N ) :   1.0450 
B(  5-C , 11-C ) :   1.3724 B(  6-H ,  9-N ) :   0.9253 B(  7-H ,  9-N ) :   0.9253 
B(  8-C , 11-C ) :   1.4657 B( 11-C , 13-H ) :   0.9762 

-------
TIMINGS
-------

Total SCF time: 0 days 0 hours 0 min 6 sec 

Total time                  ....       6.739 sec
Sum of individual times     ....       6.236 sec  ( 92.5%)

SCF preparation             ....       0.020 sec  (  0.3%)
Fock matrix formation       ....       6.142 sec  ( 91.1%)
  Startup                   ....       0.001 sec  (  0.0% of F)
  Split-RI-J                ....       1.754 sec  ( 28.6% of F)
  XC integration            ....       4.874 sec  ( 79.4% of F)
    Basis function eval.    ....       1.514 sec  ( 31.1% of XC)
    Density eval.           ....       0.840 sec  ( 17.2% of XC)
    XC-Functional eval.     ....       0.110 sec  (  2.3% of XC)
    XC-Potential eval.      ....       2.303 sec  ( 47.3% of XC)
Diagonalization             ....       0.000 sec  (  0.0%)
Density matrix formation    ....       0.006 sec  (  0.1%)
Total Energy calculation    ....       0.005 sec  (  0.1%)
Population analysis         ....       0.004 sec  (  0.1%)
Orbital Transformation      ....       0.009 sec  (  0.1%)
Orbital Orthonormalization  ....       0.000 sec  (  0.0%)
DIIS solution               ....       0.038 sec  (  0.6%)
SOSCF solution              ....       0.013 sec  (  0.2%)
Finished LeanSCF after   6.8 sec

Maximum memory used throughout the entire LEANSCF-calculation: 26.6 MB

-------------------------   --------------------
FINAL SINGLE POINT ENERGY      -287.629395728603
-------------------------   --------------------


------------------------------------------------------------------------------
                              ORCA PROPERTY CALCULATIONS
------------------------------------------------------------------------------

GBWName                                 ... job.gbw
Number of atoms                         ...     14
Number of basis functions               ...    259
Max core memory                         ...  16384 MB

Electric properties:
Dipole moment                           ... YES
Quadrupole moment                       ...  NO
Static polarizability (Dipole/Dipole)   ...  NO
Static polarizability (Dipole/Quad.)    ...  NO
Static polarizability (Quad./Quad.)     ...  NO
Static polarizability (Velocity)        ...  NO
Static hyperpolarizability              ...  NO

Atomic electric properties:
Dipole moment                           ...  NO
Quadrupole moment                       ...  NO
Static polarizability                   ...  NO

Choice of electric origin               ... Center of mass
Position of electric origin             ...    -3.492617     1.011478     0.058882

General magnetic properties:
Magnetizability                         ...  NO

EPR properties:
g-Tensor (aka g-matrix)                 ...  NO
Zero-Field splitting spin-orbit         ...  NO
Zero-field splitting spin-spin          ...  NO
Hyperfine couplings                     ...  NO (   0 nuclei)
Quadrupole couplings                    ...  NO (   0 nuclei)
Contact density                         ...  NO (   0 nuclei)

NMR properties:
Chemical shifts                         ...  NO (   0 nuclei)
Spin-rotation constants                 ...  NO (   0 nuclei)
Spin-spin couplings                     ...  NO (   0 nuclei,    0 pairs)

Choice of magnetic origin               ... GIAO
Position of magnetic origin             ...     0.000000     0.000000     0.000000

Properties with geometric perturbations:
SCF Hessian                             ...  NO
IR spectrum                             ...  NO
VCD spectrum                            ...  NO
X-ray spectroscopy properties:
SCF XES/XAS/RIXS spectra                ...  NO

SCF SOC stabilization energy            ...  NO
Diagonal Born-Oppenheimer correction    ...  NO

-------------
DIPOLE MOMENT
-------------

Method             : SCF
Type of density    : Electron Density
Multiplicity       :   1
Irrep              :   0
Energy             :  -287.6293957286028444 Eh
Basis              : AO
                                X                 Y                 Z
Electronic contribution:      0.002478291       0.143286903      -0.060037182
Nuclear contribution   :     -0.011092280      -0.684619271       0.401747276
                        -----------------------------------------
Total Dipole Moment    :     -0.008613989      -0.541332368       0.341710094
                        -----------------------------------------
Magnitude (a.u.)       :      0.640219276
Magnitude (Debye)      :      1.627308076



--------------------
Rotational spectrum 
--------------------
 
Rotational constants in cm-1:             0.187637             0.086618             0.059377 
Rotational constants in MHz :          5625.227414          2596.738992          1780.071795 

Dipole components along the rotational axes: 
x,y,z [a.u.] :     0.541851     0.001079     0.340994 
x,y,z [Debye]:     1.377275     0.002742     0.866739 

 

Dipole moment calculation done in   0.0 sec 

Maximum memory used throughout the entire PROP-calculation: 19.2 MB

--------------------------------
SUGGESTED CITATIONS FOR THIS RUN
--------------------------------

Below you find a list of papers that are relevant to this ORCA run
We neither can nor want to force you to cite these papers, but we appreciate if you do
You receive ORCA, which is the product of decades of hard work by many enthusiastic individuals, for free
The only thing we kindly ask in return is that you cite our papers,
We deeply appreciate it, if you show your appreciation for ORCA by not just citing the generic ORCA reference.

Please note that relegating all ORCA citations to the supporting information does *not* help us.
SI sections are not indexed - citations you put there will not count into any citation statistics
But we need these citations in order to attract the funding resources that allow us to do what we are doing

Therefore, if you are a happy ORCA user, please consider citing a few of the papers listed below in the main body of your paper

In addition to the list printed below, the program has created the file job.bibtex that contains the list in bibtex format
You can import this file easily into all common literature databanks and citation aid programs


List of essential papers. We consider these as the minimum necessary citations

  1. Neese, F.
     Software update: the ORCA program system, version 6.0
     WIRES Comput. Molec. Sci. 2025 15(1), e70019
     doi.org/10.1002/wcms.7019

List of papers to cite with high priority. The work reported in these papers was absolutely
necessary for this run to complete.
Our perspective: the developers of density functionals and basis sets usually get cited in chemistry papers
Good! But without the algorithms to do something with them, the functionals or basis sets would not do anything.
Hence, in our opinion, the algorithm design and method developments papers are equally worthy of getting cited

  1. Neese, F.
     An improvement of the resolution of the identity approximation for the formation of the Coulomb matrix
     J. Comp. Chem. 2003 24(14), 1740-1747
     doi.org/10.1002/jcc.10318
  2. Neese, F.
     The SHARK Integral Generation and Digestion System
     J. Comp. Chem. 2022 44(3), 381
     doi.org/10.1002/jcc.26942

List of suggested additional citations. These are papers that are important in the 'surrounding' of 
of this run, or papers that preceded the highly important papers. If you like your results we are grateful for a citation.

  1. Neese, F.
     The ORCA program system
     WIRES Comput. Molec. Sci. 2012 2(1), 73-78
     doi.org/10.1002/wcms.81
  2. Neese, F.
     Software update: the ORCA program system, version 4.0
     WIRES Comput. Molec. Sci. 2018 8(1), 1-6
     doi.org/10.1002/wcms.1327
  3. Neese, F.; Wennmohs, F.; Becker, U.; Riplinger, C.
     The ORCA quantum chemistry program package
     J. Chem. Phys. 2020 152(22), 224108
     doi.org/10.1063/5.0004608
  4. Neese, F.
     Software update: The ORCA program system—Version 5.0
     WIRES Comput. Molec. Sci. 2022 12(1), e1606
     doi.org/10.1002/wcms.1606

List of optional additional citations

  1. Neese, F.
     Approximate second-order SCF convergence for spin unrestricted wavefunctions
     Chem. Phys. Lett. 2000 325(1-3), 93-98
     doi.org/10.1016/s0009-2614(00)00662-x

Timings for individual modules:

Sum of individual times          ...        7.603 sec (=   0.127 min)
Startup calculation              ...        0.382 sec (=   0.006 min)   5.0 %
SCF iterations                   ...        7.164 sec (=   0.119 min)  94.2 %
Property calculations            ...        0.056 sec (=   0.001 min)   0.7 %
                             ****ORCA TERMINATED NORMALLY****
TOTAL RUN TIME: 0 days 0 hours 0 minutes 7 seconds 661 msec
