
                                 *****************
                                 * O   R   C   A *
                                 *****************

                                            #,                                       
                                            ###                                      
                                            ####                                     
                                            #####                                    
                                            ######                                   
                                           ########,                                 
                                     ,,################,,,,,                         
                               ,,#################################,,                 
                          ,,##########################################,,             
                       ,#########################################, ''#####,          
                    ,#############################################,,   '####,        
                  ,##################################################,,,,####,       
                ,###########''''           ''''###############################       
              ,#####''   ,,,,##########,,,,          '''####'''          '####       
            ,##' ,,,,###########################,,,                        '##       
           ' ,,###''''                  '''############,,,                           
         ,,##''                                '''############,,,,        ,,,,,,###''
      ,#''                                            '''#######################'''  
     '                                                          ''''####''''         
             ,#######,   #######,   ,#######,      ##                                
            ,#'     '#,  ##    ##  ,#'     '#,    #''#        ,####,    ,#,          
            ##       ##  ##   ,#'  ##            #'  '#       #'       ,# #          
            ##       ##  #######   ##           ,######,      #####,      #          
            '#,     ,#'  ##    ##  '#,     ,#' ,#      #,     #,   #      #          
             '#######'   ##     ##  '#######'  #'      '#     '####' #    #          



                #########################################################
                #                        -***-                          #
                #          Department of theory and spectroscopy        #
                #                                                       #
                #                      Frank Neese                      #
                #                                                       #
                #     Directorship, Architecture, Infrastructure        #
                #                    SHARK, DRIVERS                     #
                #        Core code/Algorithms in most modules           #
                #                                                       #
                #        Max Planck Institute fuer Kohlenforschung      #
                #                Kaiser Wilhelm Platz 1                 #
                #                 D-45470 Muelheim/Ruhr                 #
                #                      Germany                          #
                #                                                       #
                #                  All rights reserved                  #
                #                        -***-                          #
                #########################################################


                         Program Version 6.1.0  -  RELEASE   -
                                (GIT: $679e74b7b5$)
                          ($2025-06-10 18:02:51 +0200$)


 With contributions from (in alphabetic order):
[Max-Planck-Institut fuer Kohlenforschung]                               
  Daniel Aravena         : Magnetic Suceptibility                        
  Michael Atanasov       : Ab Initio Ligand Field Theory (pilot matlab implementation)
  Alexander A. Auer      : GIAO ZORA, VPT2 properties, NMR spectrum      
  Ute Becker             : All parallelization in ORCA, NUMFREQ, NUMCALC 
  Giovanni Bistoni       : ED, misc. LED, open-shell LED, HFLD           
  Dmytro Bykov           : pre 5.0 version of the SCF Hessian            
  Marcos Casanova-Páez   : Triplet and SCS-CIS(D). UHF-(DLPNO)-IP/EA/STEOM-CCSD. UHF-CVS-IP/STEOM-CCSD   
  Vijay G. Chilkuri      : MRCI spin determinant printing, contributions to CSF-ICE 
  Pauline Colinet        : FMM embedding                                 
  Dipayan Datta          : RHF DLPNO-CCSD density                        
  Achintya Kumar Dutta   : EOM-CC, STEOM-CC                              
  Nicolas Foglia         : Exact transition moments, OPA infrastructure, MCD improvements    
  Dmitry Ganyushin       : Spin-Orbit,Spin-Spin,Magnetic field MRCI      
  Miquel Garcia-Rates    : C-PCM and meta-GGA Hessian, CCSD/C-PCM, Gaussian charge scheme 
  Tiago L. C. Gouveia    : GS-ROHF, GS-ROCIS                             
  Yang Guo               : DLPNO-NEVPT2, F12-NEVPT2, CIM, IAO-localization        
  Andreas Hansen         : Spin unrestricted coupled pair/coupled cluster methods 
  Ingolf Harden          : AUTO-CI MPn and infrastructure                
  Benjamin Helmich-Paris : MC-RPA, TRAH-(SCF,CASSCF), AVAS, COSX integrals, SCF dyn. polar., MC-PDFT, srDFT 
  Lee Huntington         : MR-EOM, pCC                                   
  Robert Izsak           : Overlap fitted RIJCOSX, COSX-SCS-MP3, EOM     
  Riya Kayal             : Wick's Theorem for AUTO-CI, AUTO-CI UHF-CCSDT 
  Emily Kempfer          : AUTO-CI RHF CISDT and CCSDT, approximate NEVPT4
  Christian Kollmar      : KDIIS, OOCD, Brueckner-CCSD(T), CCSD density, CASPT2, CASPT2-K, improved NEVPT2 
  Axel Koslowski         : Symmetry handling                             
  Simone Kossmann        : meta-GGA functionals, TD-DFT gradient, OOMP2, (MP2 Hessian; deprecated post 5.0) 
  Lucas Lang             : DCDCAS, Hyperfine gauge corrections, ICE-SOC+SSC
  Marvin Lechner         : AUTO-CI (C++ implementation), FIC-MRCC        
  Spencer Leger          : CASSCF response                               
  Dagmar Lenk            : GEPOL surface, SMD, ORCA-2-JSON               
  Dimitrios Liakos       : Extrapolation schemes; Compound Job, Property file
  Dimitrios Manganas     : Further ROCIS development; embedding schemes. LFT, Crystal Embedding 
  Dimitrios Pantazis     : SARC Basis sets                               
  Anastasios Papadopoulos: AUTO-CI, single reference methods and gradients 
  Taras Petrenko         : pre 6.0 DFT Hessian and TD-DFT gradient,  ECA, NRVS 
  Petra Pikulova         : Analytic Raman intensities                    
  Peter Pinski           : DLPNO-MP2, DLPNO-MP2 Gradient                 
  Shashank Vittal Rao    : ES-AILFT, MagRelax                            
  Christoph Reimann      : Effective Core Potentials                     
  Marius Retegan         : Local ZFS, SOC                                
  Christoph Riplinger    : Optimizer, TS searches, QM/MM, DLPNO-CCSD(T), (RO)-DLPNO pert. Triples 
  Michael Roemelt        : Original ROCIS implementation, recursive CI coupling coefficients
  Masaaki Saitow         : Open-shell DLPNO-CCSD energy and density      
  Barbara Sandhoefer     : DKH picture change effects                    
  Yorick L. A. Schmerwitz: GMF and freeze-and-release deltaSCF, NEB S-IDPP initial path                    
  Kantharuban Sivalingam : CASSCF convergence/infrastructure, NEVPT2, NEVPT3, NEVPT4(SD), FIC-MRCI and CEPA variants
  Bernardo de Souza      : ESD, SOC TD-DFT                               
  Georgi L. Stoychev     : AutoAux, RI-MP2 NMR, DLPNO-MP2 response, X2C  
  Van Anh Tran           : RI-MP2 g-tensors                              
  Willem Van den Heuvel  : Paramagnetic NMR                              
  Zikuan Wang            : NOTCH, Electric field optimization            
  Frank Wennmohs         : Technical directorship and infrastructure     
  Hang Xu                : AUTO-CI-Response properties                   
                                                                         
[FACCTs GmbH]                                                            
  Markus Bursch, Nicolas Foglia, Miquel Garcia-Rates, Ingolf Harden, Hagen Neugebauer, Anastasios Papadopoulos, 
  Christoph Riplinger, Bernardo de Souza, Georgi L. Stoychev                                                    
                                                                 
  APM, various basis sets, CI-OPT, improved COSX, DLPNO-Multilevel,           
  DOCKER, DRACO, updates on ESD, Fragmentator, GOAT, IRC, LR-CPCM, L-BFGS, MBIS, meta-GGA TD-DFT gradient, ML-optimized integration grids, 
  MM, NACMEs, nearIR, NEB, NEB-TS, NL-DFT gradient (VV10), 2- and 3-layer-ONIOM, interface openCOSMO-RS, QMMM,   
  Crystal-QMMM, RESP, rigid body optimization, SF, symmetry and pop. for TD-DFT, various functionals, SOLVATOR                                   
                                                                         
[Other institutions]                                                     
  V. Asgeirsson          : NEB                                           
  Christoph Bannwarth    : sTDA-DFT, sTD-DFT, PBEh-3c, B97-3c, D3        
  Giovanni Bistoni       : ETS/NOCV, ADLD/ADEX, COVALED                  
  Martin Brehm           : Molecular dynamics                            
  Ronald Cardenas        : ETS/NOCV                                      
  Martina Colucci        : COVALED                                       
  Sebastian Ehlert       : rSCAN, r2SCAN, r2SCAN-3c, D4, dhf basis sets  
  Marvin Friede          : D4 for Fr, Ra, Ac-Lr                          
  Lars Goerigk           : TD-DFT with DH, B97 family of functionals     
  Stefan Grimme          : VdW corrections, initial TS optimization, DFT functionals, gCP, sTDA/sTD-DF 
  Waldemar Hujo          : DFT-NL                                        
  H. Jonsson             : NEB                                           
  Holger Kruse           : gCP                                           
  Marcel Mueller         : wB97X-3c, vDZP basis set                      
  Hagen Neugebauer       : wr2SCAN, Native XTB                           
  Gianluca Regni         : ADLD/ADEX                                     
  Tobias Risthaus        : pre 6.0 range-separated hybrid DFT and stability analysis
  Lukas Wittmann         : regularized MP2, r2SCAN double-hybrids, wr2SCAN        
                                                                         
We gratefully acknowledge several colleagues who have allowed us to      
interface, adapt or use parts of their codes:                            
  Ed Valeev, F. Pavosevic, A. Kumar             : LibInt (2-el integral package), F12 methods 
  Garnet Chan, S. Sharma, J. Yang, R. Olivares  : DMRG                   
  Ulf Ekstrom                                   : XCFun DFT Library      
  Mihaly Kallay                                 : mrcc  (arbitrary order and MRCC methods)
  Frank Weinhold                                : gennbo (NPA and NBO analysis)           
  Simon Mueller                                 : openCOSMO-RS                            
  Christopher J. Cramer and Donald G. Truhlar   : smd solvation model                     
  S Lehtola, MJT Oliveira, MAL Marques          : LibXC Library                           
  Liviu Ungur et al                             : ANISO software                          


 Your calculation uses the libint2 library for the computation of 2-el integrals
 For citations please refer to: http://libint.valeyev.net

 Your ORCA version has been built with support for libXC version: 7.0.0
 For citations please refer to: https://libxc.gitlab.io

 This ORCA versions uses:
   CBLAS   interface :  Fast vector & matrix operations
   LAPACKE interface :  Fast linear algebra routines
   SCALAPACK package :  Parallel linear algebra routines
   Shared memory     :  Shared parallel matrices


  ***********************************
  * Starting time: Wed Jul  9 16:43:08 2025
  * Host name:     MacBook-Air-3.local
  * Process ID:    73716
  * Working dir.:  /Users/blenl/Desktop/Folders/Projects/DFT2/Anisole
  ***********************************

NOTE: MaxCore=16384 MB was set to SCF,MP2,MDCI,CIPSI,MRCI,RASCI and CIS
      => If you want to overwrite this, your respective input block should be placed after the MaxCore statement
Warning: RI is on but no J-basis has been assigned. Assigning Def2/J (nothing to worry about!)
================================================================================

----- Orbital basis set information -----
Your calculation utilizes the basis: def2-TZVP
   F. Weigend and R. Ahlrichs, Phys. Chem. Chem. Phys. 7, 3297 (2005).

----- AuxJ basis set information -----
Your calculation utilizes the auxiliary basis: def2/J
   H-Rn: F. Weigend, Phys. Chem. Chem. Phys. 8, 1057 (2006).
   Fr-Lr: K. Eichkorn, F. Weigend, O. Treutler, R. Ahlrichs; Theor. Chem. Acc. 97, 119 (1997).

================================================================================
                                        WARNINGS
                       Please study these warnings very carefully!
================================================================================


================================================================================
                                       INPUT FILE
================================================================================
NAME = job.inp
|  1> # avogadro generated ORCA file
|  2> # C7H8O | Single Point | revPBE/def2-TZVP
|  3> # 
|  4> ! SP revPBE def2-TZVP 
|  5> 
|  6> %maxcore 16384
|  7> 
|  8> %pal
|  9>    nprocs 1
| 10> end
| 11> 
| 12> %output
| 13>   Print[P_Basis] 2
| 14>   Print[P_MOs] 1
| 15> end
| 16> 
| 17> 
| 18> * xyz 0 1
| 19>    C     -2.404980    0.574912   -0.000109
| 20>    C     -2.326273   -0.818739   -0.000127
| 21>    C      0.082689   -3.532877   -0.000256
| 22>    H      0.913833    1.292863   -0.000225
| 23>    C     -1.238297    1.335117   -0.000144
| 24>    C     -1.086225   -1.463181   -0.000181
| 25>    H     -0.142813   -4.603777   -0.000251
| 26>    H     -3.375573    1.063240   -0.000067
| 27>    C      0.080296   -0.696611   -0.000217
| 28>    H     -3.238904   -1.409551   -0.000099
| 29>    O     -1.152832   -2.829459   -0.000192
| 30>    H     -1.295460    2.420391   -0.000130
| 31>    H      0.661548   -3.314856   -0.903949
| 32>    H      0.661638   -3.314867    0.903382
| 33>    C      0.002561    0.700036   -0.000198
| 34>    H      1.064499   -1.152181   -0.000259
| 35> *
| 36> 
| 37> 
| 38> 
| 39>                          ****END OF INPUT****
================================================================================

                       ****************************
                       * Single Point Calculation *
                       ****************************

---------------------------------
CARTESIAN COORDINATES (ANGSTROEM)
---------------------------------
  C     -2.404980    0.574912   -0.000109
  C     -2.326273   -0.818739   -0.000127
  C      0.082689   -3.532877   -0.000256
  H      0.913833    1.292863   -0.000225
  C     -1.238297    1.335117   -0.000144
  C     -1.086225   -1.463181   -0.000181
  H     -0.142813   -4.603777   -0.000251
  H     -3.375573    1.063240   -0.000067
  C      0.080296   -0.696611   -0.000217
  H     -3.238904   -1.409551   -0.000099
  O     -1.152832   -2.829459   -0.000192
  H     -1.295460    2.420391   -0.000130
  H      0.661548   -3.314856   -0.903949
  H      0.661638   -3.314867    0.903382
  C      0.002561    0.700036   -0.000198
  H      1.064499   -1.152181   -0.000259

----------------------------
CARTESIAN COORDINATES (A.U.)
----------------------------
  NO LB      ZA    FRAG     MASS         X           Y           Z
   0 C     6.0000    0    12.011   -4.544754    1.086426   -0.000206
   1 C     6.0000    0    12.011   -4.396019   -1.547192   -0.000240
   2 C     6.0000    0    12.011    0.156260   -6.676170   -0.000484
   3 H     1.0000    0     1.008    1.726894    2.443157   -0.000425
   4 C     6.0000    0    12.011   -2.340042    2.523005   -0.000272
   5 C     6.0000    0    12.011   -2.052668   -2.765011   -0.000342
   6 H     1.0000    0     1.008   -0.269877   -8.699878   -0.000474
   7 H     1.0000    0     1.008   -6.378909    2.009232   -0.000127
   8 C     6.0000    0    12.011    0.151737   -1.316404   -0.000410
   9 H     1.0000    0     1.008   -6.120642   -2.663665   -0.000187
  10 O     8.0000    0    15.999   -2.178537   -5.346903   -0.000363
  11 H     1.0000    0     1.008   -2.448065    4.573876   -0.000246
  12 H     1.0000    0     1.008    1.250145   -6.264170   -1.708216
  13 H     1.0000    0     1.008    1.250315   -6.264191    1.707145
  14 C     6.0000    0    12.011    0.004840    1.322876   -0.000374
  15 H     1.0000    0     1.008    2.011612   -2.177307   -0.000489

--------------------------------
INTERNAL COORDINATES (ANGSTROEM)
--------------------------------
 C      0   0   0     0.000000000000     0.00000000     0.00000000
 C      1   0   0     1.395871735502     0.00000000     0.00000000
 C      2   1   0     3.629000277918   141.64137072     0.00000000
 H      1   2   3     3.395581449594    98.97419925     0.00000000
 C      1   2   3     1.392501657356   119.85570249     0.00000000
 C      2   1   3     1.397506542591   120.69287017     0.00000000
 H      3   2   1     1.094384741318   126.51781488   179.99954915
 H      1   2   3     1.086515075366   119.94040455   179.99978202
 C      6   2   1     1.395851284929   119.22889995     0.00000000
 H      2   1   3     1.087177153131   119.68553144   180.00022860
 O      6   2   1     1.367900605254   114.66950227   179.99994513
 H      5   1   2     1.086778387640   120.07300306   180.00000823
 H      3   2   1     1.095112750620   101.65460935   302.58893990
 H      3   2   1     1.095112752069   101.65480830    57.40999495
 C      4   1   2     1.087134081262    20.83940301     0.00000000
 H      9   6   2     1.084527349527   121.85082558   179.99998403

---------------------------
INTERNAL COORDINATES (A.U.)
---------------------------
 C      0   0   0     0.000000000000     0.00000000     0.00000000
 C      1   0   0     2.637815298181     0.00000000     0.00000000
 C      2   1   0     6.857816665189   141.64137072     0.00000000
 H      1   2   3     6.416719005156    98.97419925     0.00000000
 C      1   2   3     2.631446773434   119.85570249     0.00000000
 C      2   1   3     2.640904635860   120.69287017     0.00000000
 H      3   2   1     2.068087446233   126.51781488   179.99954915
 H      1   2   3     2.053215932818   119.94040455   179.99978202
 C      6   2   1     2.637776652197   119.22889995     0.00000000
 H      2   1   3     2.054467078473   119.68553144   180.00022860
 O      6   2   1     2.584957522355   114.66950227   179.99994513
 H      5   1   2     2.053713520904   120.07300306   180.00000823
 H      3   2   1     2.069463184437   101.65460935   302.58893990
 H      3   2   1     2.069463187176   101.65480830    57.40999495
 C      4   1   2     2.054385684438    20.83940301     0.00000000
 H      9   6   2     2.049459675354   121.85082558   179.99998403

---------------------
BASIS SET INFORMATION
---------------------
There are 3 groups of distinct atoms

 Group   1 Type C   : 11s6p2d1f contracted to 5s3p2d1f pattern {62111/411/11/1}
 Group   2 Type H   : 5s1p contracted to 3s1p pattern {311/1}
 Group   3 Type O   : 11s6p2d1f contracted to 5s3p2d1f pattern {62111/411/11/1}

Atom   0C    basis set group =>   1
Atom   1C    basis set group =>   1
Atom   2C    basis set group =>   1
Atom   3H    basis set group =>   2
Atom   4C    basis set group =>   1
Atom   5C    basis set group =>   1
Atom   6H    basis set group =>   2
Atom   7H    basis set group =>   2
Atom   8C    basis set group =>   1
Atom   9H    basis set group =>   2
Atom  10O    basis set group =>   3
Atom  11H    basis set group =>   2
Atom  12H    basis set group =>   2
Atom  13H    basis set group =>   2
Atom  14C    basis set group =>   1
Atom  15H    basis set group =>   2

-------------------------
BASIS SET IN INPUT FORMAT
-------------------------

 # Basis set for element : H 
 NewGTO H 
 S 3 
   1      34.0613410000      0.0254393072
   2       5.1235746000      0.1900859489
   3       1.1646626000      0.8524411301
 S 1 
   1       0.3272304100      1.0000000000
 S 1 
   1       0.1030724100      1.0000000000
 P 1 
   1       0.8000000000      1.0000000000
  end;

 # Basis set for element : C 
 NewGTO C 
 S 6 
   1   13575.3496820000      0.0006064549
   2    2035.2333680000      0.0046979088
   3     463.2256235900      0.0243324776
   4     131.2001959800      0.0973999683
   5      42.8530158910      0.3019558425
   6      15.5841857660      0.6623360915
 S 2 
   1       6.2067138508      0.6559530854
   2       2.5764896527      0.3758563329
 S 1 
   1       0.5769633942      1.0000000000
 S 1 
   1       0.2297283136      1.0000000000
 S 1 
   1       0.0951644400      1.0000000000
 P 4 
   1      34.6972322440      0.0113272200
   2       7.9582622826      0.0761696592
   3       2.3780826883      0.3019225220
   4       0.8143320818      0.7278502735
 P 1 
   1       0.2888754725      1.0000000000
 P 1 
   1       0.1005682367      1.0000000000
 D 1 
   1       1.0970000000      1.0000000000
 D 1 
   1       0.3180000000      1.0000000000
 F 1 
   1       0.7610000000      1.0000000000
  end;

 # Basis set for element : O 
 NewGTO O 
 S 6 
   1   27032.3826310000      0.0005722733
   2    4052.3871392000      0.0044353233
   3     922.3272271000      0.0230201076
   4     261.2407098900      0.0928224906
   5      85.3546413510      0.2937850002
   6      31.0350352450      0.6740160450
 S 2 
   1      12.2608607280      0.6383993702
   2       4.9987076005      0.3953458713
 S 1 
   1       1.1703108158      1.0000000000
 S 1 
   1       0.4647474099      1.0000000000
 S 1 
   1       0.1850453636      1.0000000000
 P 4 
   1      63.2749548010      0.0120183321
   2      14.6270493790      0.0830054217
   3       4.4501223456      0.3199174393
   4       1.5275799647      0.7071554292
 P 1 
   1       0.5293511794      1.0000000000
 P 1 
   1       0.1747842127      1.0000000000
 D 1 
   1       2.3140000000      1.0000000000
 D 1 
   1       0.6450000000      1.0000000000
 F 1 
   1       1.4280000000      1.0000000000
  end;

---------------------------------
AUXILIARY/J BASIS SET INFORMATION
---------------------------------
There are 3 groups of distinct atoms

 Group   1 Type C   : 12s5p4d2f1g contracted to 6s4p3d1f1g pattern {711111/2111/211/2/1}
 Group   2 Type H   : 5s2p1d contracted to 3s1p1d pattern {311/2/1}
 Group   3 Type O   : 12s5p4d2f1g contracted to 6s4p3d1f1g pattern {711111/2111/211/2/1}

Atom   0C    basis set group =>   1
Atom   1C    basis set group =>   1
Atom   2C    basis set group =>   1
Atom   3H    basis set group =>   2
Atom   4C    basis set group =>   1
Atom   5C    basis set group =>   1
Atom   6H    basis set group =>   2
Atom   7H    basis set group =>   2
Atom   8C    basis set group =>   1
Atom   9H    basis set group =>   2
Atom  10O    basis set group =>   3
Atom  11H    basis set group =>   2
Atom  12H    basis set group =>   2
Atom  13H    basis set group =>   2
Atom  14C    basis set group =>   1
Atom  15H    basis set group =>   2

-------------------------------------
AUXILIARY/J BASIS SET IN INPUT FORMAT
-------------------------------------

 # Auxiliary/J basis set for element : H 
 NewAuxJGTO H 
 S 3 
   1      15.6752927000      0.1007184237
   2       3.6063578000      0.3404257499
   3       1.2080016000      0.6491996172
 S 1 
   1       0.4726794000      1.0000000000
 S 1 
   1       0.2018100000      1.0000000000
 P 2 
   1       2.0281365000      0.5596620919
   2       0.5358730000      0.5596620919
 D 1 
   1       2.2165124000      1.0000000000
  end;

 # Auxiliary/J basis set for element : C 
 NewAuxJGTO C 
 S 7 
   1    1861.0916331000      0.0134602335
   2     642.9939764000      0.0299160374
   3     235.1105725000      0.1008649584
   4      90.7028894000      0.2370970548
   5      36.7794552000      0.3924037254
   6      15.6046273000      0.3195862154
   7       6.8907294000      0.0530104441
 S 1 
   1       3.1478850000     -1.0000000000
 S 1 
   1       1.4777287000      1.0000000000
 S 1 
   1       0.7076466000      1.0000000000
 S 1 
   1       0.3430122000      1.0000000000
 S 1 
   1       0.1669453000      1.0000000000
 P 2 
   1      13.5472892000     -0.6769313712
   2       5.4669419000     -0.3779500978
 P 1 
   1       2.1751721000      1.0000000000
 P 1 
   1       0.8582194000      1.0000000000
 P 1 
   1       0.3376720000      1.0000000000
 D 2 
   1       5.9287253000     -0.3533329857
   2       1.9809209000     -0.7456525731
 D 1 
   1       0.8055417000     -1.0000000000
 D 1 
   1       0.3531244000     -1.0000000000
 F 2 
   1       1.6755626000      0.6311076882
   2       0.5997536000      0.4968166032
 G 1 
   1       1.0024600000     -1.0000000000
  end;

 # Auxiliary/J basis set for element : O 
 NewAuxJGTO O 
 S 7 
   1    2876.8216605000      0.0168151159
   2    1004.7443032000      0.0340137548
   3     369.7579954000      0.1194951309
   4     142.9442404000      0.2664627624
   5      57.8366425000      0.4202764046
   6      24.3864983000      0.2765077335
   7      10.6622662000      0.0057008815
 S 1 
   1       4.8070437000     -1.0000000000
 S 1 
   1       2.2210770000      1.0000000000
 S 1 
   1       1.0447795000      1.0000000000
 S 1 
   1       0.4968425000      1.0000000000
 S 1 
   1       0.2371384000      1.0000000000
 P 2 
   1      64.2613382000     -0.2731534179
   2      16.3006076000     -0.8168011598
 P 1 
   1       4.3550542000      1.0000000000
 P 1 
   1       1.2019554000      1.0000000000
 P 1 
   1       0.3354196000      1.0000000000
 D 2 
   1       9.2146611000     -0.4661230638
   2       2.8435251000     -0.6600908911
 D 1 
   1       0.9955759000     -1.0000000000
 D 1 
   1       0.3649441000     -1.0000000000
 F 2 
   1       2.6420115000      0.5931563945
   2       0.7345613000      0.5931563945
 G 1 
   1       1.3931000000     -1.0000000000
  end;

------------------------------------------------------------------------------
                             ORCA STARTUP CALCULATIONS
                           -- RI-GTO INTEGRALS CHOSEN --
------------------------------------------------------------------------------
------------------------------------------------------------------------------
                   ___                                                        
                  /   \      - P O W E R E D   B Y -                         
                 /     \                                                     
                 |  |  |   _    _      __       _____    __    __             
                 |  |  |  | |  | |    /  \     |  _  \  |  |  /  |          
                  \  \/   | |  | |   /    \    | | | |  |  | /  /          
                 / \  \   | |__| |  /  /\  \   | |_| |  |  |/  /          
                |  |  |   |  __  | /  /__\  \  |    /   |      \           
                |  |  |   | |  | | |   __   |  |    \   |  |\   \          
                \     /   | |  | | |  |  |  |  | |\  \  |  | \   \       
                 \___/    |_|  |_| |__|  |__|  |_| \__\ |__|  \__/        
                                                                              
                      - O R C A' S   B I G   F R I E N D -                    
                                      &                                       
                       - I N T E G R A L  F E E D E R -                       
                                                                              
 v1 FN, 2020, v2 2021, v3 2022-2024                                           
------------------------------------------------------------------------------


----------------------
SHARK INTEGRAL PACKAGE
----------------------

Number of atoms                             ...     16
Number of basis functions                   ...    296
Number of shells                            ...    120
Maximum angular momentum                    ...      3
Integral batch strategy                     ... SHARK/LIBINT Hybrid
RI-J (if used) integral strategy            ... SPLIT-RIJ (Revised 2003 algorithm where possible)
Printlevel                                  ...      1
Contraction scheme used                     ... SEGMENTED contraction
Prescreening option                         ... SCHWARTZ
   Thresh                                   ... 1.000e-10
   Tcut                                     ... 1.000e-11
   Tpresel                                  ... 1.000e-11 
Coulomb Range Separation                    ... NOT USED
Exchange Range Separation                   ... NOT USED
Multipole approximations                    ... NOT USED
Finite Nucleus Model                        ... NOT USED
CABS basis                                  ... NOT available
Auxiliary Coulomb fitting basis             ... AVAILABLE
   # of basis functions in Aux-J            ...    480
   # of shells in Aux-J                     ...    160
   Maximum angular momentum in Aux-J        ...      4
Auxiliary J/K fitting basis                 ... NOT available
Auxiliary Correlation fitting basis         ... NOT available
Auxiliary 'external' fitting basis          ... NOT available

Checking pre-screening integrals            ... done (  0.0 sec) Dimension = 120
   => SHARK Basis and OBASIS are compatible. Storing Pre-screening
Shell pair information
Shell pair cut-off parameter TPreSel        ...   1.0e-11
Total number of shell pairs                 ...      7260
Shell pairs after pre-screening             ...      6583
Total number of primitive shell pairs       ...     21936
Primitive shell pairs kept                  ...     14972
          la=0 lb=0:   1803 shell pairs
          la=1 lb=0:   1858 shell pairs
          la=1 lb=1:    500 shell pairs
          la=2 lb=0:    939 shell pairs
          la=2 lb=1:    490 shell pairs
          la=2 lb=2:    130 shell pairs
          la=3 lb=0:    468 shell pairs
          la=3 lb=1:    238 shell pairs
          la=3 lb=2:    122 shell pairs
          la=3 lb=3:     35 shell pairs

Checking whether 4 symmetric matrices of dimension 296 fit in memory
:Max Core in MB      =  16384.00
 MB in use           =      9.90
 MB left             =  16374.10
 MB needed           =      1.34
 Data fit in memory  = YES
Calculating RI/J V-Matrix + Cholesky decomp.... done (  0.0 sec)
Calculating Nuclear repulsion               ... done (  0.0 sec) ENN=    345.339944399895 Eh

Diagonalization of the overlap matrix:
Smallest eigenvalue                        ... 9.794e-06
Time for diagonalization                   ...    0.004 sec
Threshold for overlap eigenvalues          ... 1.000e-07
Number of eigenvalues below threshold      ... 0
Time for construction of square roots      ...    0.001 sec
Total time needed                          ...    0.005 sec

-------------------
DFT GRID GENERATION
-------------------

General Integration Accuracy     IntAcc      ... 4.388
Radial Grid Type                 RadialGrid  ... OptM3 with GC (2021)
Angular Grid (max. ang.)         AngularGrid ... 4 (Lebedev-302)
Angular grid pruning method      GridPruning ... 4 (adaptive)
Weight generation scheme         WeightScheme... mBecke (2022)
Basis function cutoff            BFCut       ... 1.0000e-10
Integration weight cutoff        WCut        ... 1.0000e-14
Partially contracted basis set               ... off
Rotationally invariant grid construction     ... off
Angular grids for H and He will be reduced by one unit

Total number of grid points                  ...    73912
Total number of batches                      ...     1163
Average number of points per batch           ...       63
Average number of grid points per atom       ...     4620
Grids setup in   0.3 sec
Initializing property integral containers    ... done (  0.0 sec)

SHARK setup successfully completed in   0.4 seconds

Maximum memory used throughout the entire STARTUP-calculation: 42.9 MB
-------------------------------------------------------------------------------
                                 ORCA GUESS
                   Start orbitals & Density for SCF / CASSCF
-------------------------------------------------------------------------------

------------
SCF SETTINGS
------------
Hamiltonian:
 Density Functional     Method          .... DFT(GTOs)
 Exchange Functional    Exchange        .... PBE
   PBE kappa parameter   XKappa         ....  1.245000
   PBE mue parameter    XMuePBE         ....  0.219520
 Correlation Functional Correlation     .... PBE
   PBE beta parameter  CBetaPBE         ....  0.066725
 LDA part of GGA corr.  LDAOpt          .... PW91-LDA
 Gradients option       PostSCFGGA      .... off
   NL short-range parameter             ....  3.700000
 RI-approximation to the Coulomb term is turned on
   Number of AuxJ basis functions       .... 480


General Settings:
 Integral files         IntName         .... job
 Hartree-Fock type      HFTyp           .... RHF
 Total Charge           Charge          ....    0
 Multiplicity           Mult            ....    1
 Number of Electrons    NEL             ....   58
 Basis Dimension        Dim             ....  296
 Nuclear Repulsion      ENuc            ....    345.3399443999 Eh

Convergence Acceleration:
 AO-DIIS                CNVDIIS         .... on
   Start iteration      DIISMaxIt       ....    12
   Startup error        DIISStart       ....  0.200000
   # of expansion vecs  DIISMaxEq       ....     5
   Bias factor          DIISBfac        ....   1.050
   Max. coefficient     DIISMaxC        ....  10.000
 MO-DIIS                CNVKDIIS        .... off
 Trust-Rad. Augm. Hess. CNVTRAH         .... auto
   Auto Start mean grad. ratio tolernc. ....  1.125000
   Auto Start start iteration           ....    50
   Auto Start num. interpolation iter.  ....    10
   Max. Number of Micro iterations      ....    24
   Max. Number of Macro iterations      .... Maxiter - #DIIS iter
   Number of Davidson start vectors     ....     2
   Converg. threshold    (grad. norm)   ....   5.000e-05
   Grad. Scal. Fac. for Micro threshold ....   0.100
   Minimum threshold for Micro iter.    ....   1.000e-02
   NR start threshold (gradient norm)   ....   1.000e-04
   Initial trust radius                 ....   0.400
   Minimum AH scaling param. (alpha)    ....   1.000
   Maximum AH scaling param. (alpha)    .... 1000.000
   Quad. conv. algorithm                .... NR
   White noise on init. David. guess    .... on
   Maximum white noise                  ....   0.010
   Pseudo random numbers                .... off
   Inactive MOs                         .... canonical
   Orbital update algorithm             .... Taylor
   Preconditioner                       .... Diag
   Full preconditioner red. dimension   ....   250
 SOSCF                 CNVSOSCF           .... on
   Start iteration     SOSCFMaxIt         ....   150
   Startup grad/error  SOSCFStart         ....  0.003300
   Hessian update      SOSCFHessUp        .... L-BFGS
   Autom. constraints  SOSCFAutoConstrain .... off
 Level Shifting         CNVShift        .... on
   Level shift para.    LevelShift      ....    0.2500
   Turn off err/grad.   ShiftErr        ....    0.0010
 Zerner damping         CNVZerner       .... off
 Static damping         CNVDamp         .... on
   Fraction old density DampFac         ....    0.7000
   Max. Damping (<1)    DampMax         ....    0.9800
   Min. Damping (>=0)   DampMin         ....    0.0000
   Turn off err/grad.   DampErr         ....    0.1000

SCF Procedure:
 Maximum # iterations   MaxIter         ....   125
 SCF integral mode      SCFMode         .... Direct
   Integral package                     .... SHARK and LIBINT hybrid scheme
 Reset frequency        DirectResetFreq ....    20
 Integral Threshold     Thresh          ....  1.000e-10 Eh
 Primitive CutOff       TCut            ....  1.000e-11 Eh

Convergence Tolerance:
 Convergence Check Mode ConvCheckMode   .... Total+1el-Energy
 Convergence forced     ConvForced      .... 0
 Energy Change          TolE            ....  1.000e-06 Eh
 1-El. energy change                    ....  1.000e-03 Eh
 Orbital Gradient       TolG            ....  5.000e-05
 Orbital Rotation angle TolX            ....  5.000e-05
 DIIS Error             TolErr          ....  1.000e-06

------------------------------
INITIAL GUESS: MODEL POTENTIAL
------------------------------
Loading Hartree-Fock densities                     ... done
Calculating cut-offs                               ... done
Initializing the effective Hamiltonian             ... done
Setting up the integral package (SHARK)            ... done
Starting the Coulomb interaction                   ... done (   0.1 sec)
Making the grid                                    ... done (   0.1 sec)
Mapping shells                                     ... done
Starting the XC term evaluation                    ... done (   0.2 sec)
  promolecular density results
     # of electrons  =     57.997385460
     EX              =    -46.620100119
     EC              =     -1.914398487
     EX+EC           =    -48.534498606
Transforming the Hamiltonian                       ... done (   0.0 sec)
Diagonalizing the Hamiltonian                      ... done (   0.0 sec)
Back transforming the eigenvectors                 ... done (   0.0 sec)
Now organizing SCF variables                       ... done
                      ------------------
                      INITIAL GUESS DONE (   0.4 sec)
                      ------------------
             **** ENERGY FILE WAS UPDATED (job.en.tmp) ****
Finished Guess after   0.4 sec
Maximum memory used throughout the entire GUESS-calculation: 25.1 MB

-------------------------------------------------------------------------------------------
                                      ORCA LEAN-SCF
                              memory conserving SCF solver
-------------------------------------------------------------------------------------------

----------------------------------------D-I-I-S--------------------------------------------
Iteration    Energy (Eh)           Delta-E    RMSDP     MaxDP     DIISErr   Damp  Time(sec)
-------------------------------------------------------------------------------------------
               ***  Starting incremental Fock matrix formation  ***
    1    -346.6364749136347427     0.00e+00  2.21e-03  1.18e-01  1.44e-01  0.700   0.9
    2    -346.7138443835870021    -7.74e-02  2.24e-03  1.33e-01  6.58e-02  0.700   0.8
                               ***Turning on AO-DIIS***
    3    -346.7426029332129929    -2.88e-02  1.03e-03  5.33e-02  2.33e-02  0.700   0.8
    4    -346.7592852183692003    -1.67e-02  1.41e-03  5.68e-02  1.01e-02  0.000   0.7
    5    -346.7964927010592646    -3.72e-02  7.11e-04  4.46e-02  8.52e-03  0.000   0.8
    6    -346.7968410129086578    -3.48e-04  2.18e-04  1.11e-02  3.89e-03  0.000   0.7
                              *** Initializing SOSCF ***
---------------------------------------S-O-S-C-F--------------------------------------
Iteration    Energy (Eh)           Delta-E    RMSDP     MaxDP     MaxGrad    Time(sec)
--------------------------------------------------------------------------------------
    7    -346.7968826062932521    -4.16e-05  9.79e-05  4.75e-03  9.40e-04     0.7
               *** Restarting incremental Fock matrix formation ***
    8    -346.7968853196939563    -2.71e-06  3.53e-05  1.54e-03  8.07e-05     0.9
    9    -346.7968852717236814     4.80e-08  1.14e-05  5.35e-04  8.88e-05     0.6
                 **** Energy Check signals convergence ****

               *****************************************************
               *                     SUCCESS                       *
               *           SCF CONVERGED AFTER   9 CYCLES          *
               *****************************************************

             **** ENERGY FILE WAS UPDATED (job.en.tmp) ****

----------------
TOTAL SCF ENERGY
----------------

Total Energy       :       -346.79688564041851 Eh           -9436.82302 eV

Components:
Nuclear Repulsion  :        345.33994439989453 Eh            9397.17763 eV
Electronic Energy  :       -692.13683004031304 Eh          -18834.00065 eV
One Electron Energy:      -1152.91000704018893 Eh          -31372.27623 eV
Two Electron Energy:        460.77317699987583 Eh           12538.27558 eV

Virial components:
Potential Energy   :       -692.19995481458568 Eh          -18835.71836 eV
Kinetic Energy     :        345.40306917416717 Eh            9398.89534 eV
Virial Ratio       :          2.00403533318214

DFT components:
N(Alpha)           :       29.000041968625 electrons
N(Beta)            :       29.000041968625 electrons
N(Total)           :       58.000083937251 electrons
E(X)               :      -47.597004092573 Eh       
E(C)               :       -1.916918872258 Eh       
E(XC)              :      -49.513922964831 Eh       

---------------
SCF CONVERGENCE
---------------

  Last Energy change         ...   -4.7970e-08  Tolerance :   1.0000e-06
  Last MAX-Density change    ...    5.3472e-04  Tolerance :   1.0000e-05
  Last RMS-Density change    ...    1.1355e-05  Tolerance :   1.0000e-06
  Last DIIS Error            ...    9.4029e-04  Tolerance :   1.0000e-06
  Last Orbital Gradient      ...    8.8776e-05  Tolerance :   5.0000e-05
  Last Orbital Rotation      ...    1.7093e-04  Tolerance :   5.0000e-05


----------------
ORBITAL ENERGIES
----------------

  NO   OCC          E(Eh)            E(eV) 
   0   2.0000     -18.796120      -511.4684 
   1   2.0000      -9.950595      -270.7695 
   2   2.0000      -9.944380      -270.6003 
   3   2.0000      -9.895536      -269.2712 
   4   2.0000      -9.893582      -269.2181 
   5   2.0000      -9.893254      -269.2091 
   6   2.0000      -9.888733      -269.0861 
   7   2.0000      -9.886145      -269.0157 
   8   2.0000      -0.979790       -26.6614 
   9   2.0000      -0.773988       -21.0613 
  10   2.0000      -0.686463       -18.6796 
  11   2.0000      -0.674000       -18.3405 
  12   2.0000      -0.628587       -17.1047 
  13   2.0000      -0.547688       -14.9033 
  14   2.0000      -0.530968       -14.4484 
  15   2.0000      -0.483386       -13.1536 
  16   2.0000      -0.432858       -11.7787 
  17   2.0000      -0.425597       -11.5811 
  18   2.0000      -0.419999       -11.4287 
  19   2.0000      -0.395122       -10.7518 
  20   2.0000      -0.373409       -10.1610 
  21   2.0000      -0.362820        -9.8728 
  22   2.0000      -0.337409        -9.1814 
  23   2.0000      -0.317881        -8.6500 
  24   2.0000      -0.309968        -8.4347 
  25   2.0000      -0.284223        -7.7341 
  26   2.0000      -0.281635        -7.6637 
  27   2.0000      -0.225778        -6.1437 
  28   2.0000      -0.194716        -5.2985 
  29   0.0000      -0.037765        -1.0276 
  30   0.0000      -0.021805        -0.5933 
  31   0.0000       0.023005         0.6260 
  32   0.0000       0.036781         1.0009 
  33   0.0000       0.054311         1.4779 
  34   0.0000       0.065229         1.7750 
  35   0.0000       0.079225         2.1558 
  36   0.0000       0.084442         2.2978 
  37   0.0000       0.095064         2.5868 
  38   0.0000       0.104971         2.8564 
  39   0.0000       0.110664         3.0113 
*Only the first 10 virtual orbitals were printed.
------------------
MOLECULAR ORBITALS (RHF, ROHF)
------------------
                      0         1         2         3         4         5   
                 -18.79612  -9.95060  -9.94438  -9.89554  -9.89358  -9.89325
                   2.00000   2.00000   2.00000   2.00000   2.00000   2.00000
                  --------  --------  --------  --------  --------  --------
  0C   1s        -0.000010  0.000038 -0.000026  0.000735  0.467251  0.013971
  0C   2s         0.000047  0.000014  0.000003  0.000883  0.605736  0.018259
  0C   3s         0.000403 -0.000633 -0.000232 -0.000135  0.040909  0.000546
  0C   4s        -0.007525  0.008381  0.000190  0.007710 -0.007180 -0.005163
  0C   5s        -0.008958 -0.021768  0.017652 -0.008479  0.037710 -0.008028
  0C   1pz        0.000000  0.000000  0.000000  0.000000 -0.000000  0.000000
  0C   1px       -0.000055  0.000036 -0.000023 -0.000186  0.000758 -0.000137
  0C   1py       -0.000062  0.000256  0.000007 -0.000269 -0.000361  0.000025
  0C   2pz        0.000000 -0.000000  0.000000 -0.000000 -0.000000  0.000000
  0C   2px       -0.000292  0.000198  0.000220  0.009231  0.002280 -0.000930
  0C   2py        0.006175 -0.010288  0.001070  0.007373 -0.003558  0.002828
  0C   3pz        0.000000  0.000000 -0.000000  0.000000 -0.000000  0.000000
  0C   3px       -0.000725 -0.004957  0.001530 -0.000720  0.007347 -0.003058
  0C   3py        0.001689  0.003809 -0.006549  0.002248 -0.003009  0.000232
  0C   1dz2       0.000081 -0.000084  0.000017 -0.000112 -0.001558  0.000055
  0C   1dxz       0.000000 -0.000000 -0.000000 -0.000000 -0.000000  0.000000
  0C   1dyz      -0.000000  0.000000  0.000000  0.000000  0.000000 -0.000000
  0C   1dx2y2     0.000038 -0.000013  0.000024  0.000041 -0.000196  0.000007
  0C   1dxy       0.000063 -0.000039 -0.000028  0.000017  0.000265  0.000004
  0C   2dz2       0.000599 -0.000669  0.000018 -0.000406 -0.000845  0.000335
  0C   2dxz      -0.000000  0.000000 -0.000000 -0.000000 -0.000000 -0.000000
  0C   2dyz      -0.000000  0.000000 -0.000000 -0.000000  0.000000  0.000000
  0C   2dx2y2     0.001945 -0.003145  0.000316  0.003217 -0.001119  0.001646
  0C   2dxy       0.000544 -0.002016  0.000371  0.003269  0.000128 -0.000968
  0C   1f0       -0.000000  0.000000 -0.000000  0.000000 -0.000000 -0.000000
  0C   1f+1       0.000031 -0.000001 -0.000005 -0.000237  0.000297  0.000056
  0C   1f-1      -0.000077  0.000256 -0.000033 -0.000195 -0.000132 -0.000061
  0C   1f+2      -0.000000  0.000000  0.000000 -0.000000  0.000000  0.000000
  0C   1f-2      -0.000000  0.000000  0.000000 -0.000000 -0.000000 -0.000000
  0C   1f+3      -0.000055  0.000054  0.000070 -0.000042  0.000234 -0.000014
  0C   1f-3       0.000046  0.000091  0.000031  0.000073 -0.001436  0.000056
  1C   1s        -0.000028 -0.001265 -0.000015  0.000719  0.017416 -0.000185
  1C   2s         0.000145 -0.001936 -0.000001  0.000775  0.022814 -0.000161
  1C   3s        -0.002025  0.002071  0.000691  0.000916  0.000628 -0.000109
  1C   4s         0.004324 -0.016203 -0.007654  0.004380  0.012222 -0.006496
  1C   5s         0.014213  0.037598 -0.017790  0.002396 -0.029847  0.014085
  1C   1pz        0.000000  0.000000 -0.000000 -0.000000  0.000000 -0.000000
  1C   1px       -0.000093 -0.000012  0.000079  0.000139 -0.000369  0.000186
  1C   1py       -0.000064  0.000350 -0.000100 -0.000010  0.000482 -0.000130
  1C   2pz        0.000000 -0.000000  0.000000 -0.000000 -0.000001  0.000000
  1C   2px       -0.003125  0.001861 -0.005602  0.001311  0.012143 -0.009680
  1C   2py        0.007201 -0.008281  0.004292  0.003831 -0.014327  0.005156
  1C   3pz       -0.000000 -0.000000  0.000000  0.000000  0.000000 -0.000000
  1C   3px        0.005020  0.011442 -0.004210 -0.000557 -0.005933  0.004080
  1C   3py        0.005705  0.006992 -0.012888  0.004064 -0.004750 -0.001058
  1C   1dz2       0.000073 -0.000239  0.000072 -0.000134  0.000165  0.000122
  1C   1dxz       0.000000 -0.000000  0.000000 -0.000000 -0.000000  0.000000
  1C   1dyz      -0.000000  0.000000 -0.000000  0.000000 -0.000000 -0.000000
  1C   1dx2y2     0.000091  0.000202 -0.000060 -0.000042  0.000389  0.000010
  1C   1dxy       0.000016 -0.000259  0.000119 -0.000036 -0.000055  0.000029
  1C   2dz2      -0.001276  0.001364  0.000709 -0.000060 -0.000375  0.000032
  1C   2dxz       0.000000 -0.000000  0.000000  0.000000 -0.000000  0.000000
  1C   2dyz      -0.000000  0.000000 -0.000000  0.000000  0.000000 -0.000000
  1C   2dx2y2    -0.003145  0.004587 -0.000821 -0.000847  0.008611 -0.004001
  1C   2dxy       0.001475 -0.002930  0.001830 -0.000594 -0.002657  0.001546
  1C   1f0        0.000000  0.000000 -0.000000  0.000000  0.000000 -0.000000
  1C   1f+1      -0.000085 -0.000507  0.000132 -0.000036 -0.000329  0.000184
  1C   1f-1      -0.000033  0.000434 -0.000066 -0.000115  0.001011 -0.000066
  1C   1f+2      -0.000000 -0.000000  0.000000 -0.000000  0.000000  0.000000
  1C   1f-2       0.000000  0.000000 -0.000000 -0.000000  0.000000 -0.000000
  1C   1f+3       0.000061 -0.000114 -0.000085 -0.000061  0.000242  0.000083
  1C   1f-3       0.000016  0.000782 -0.000038  0.000074 -0.000801  0.000075
  2C   1s        -0.000033  0.000359  0.468028 -0.000010  0.000019 -0.000011
  2C   2s         0.000157  0.000386  0.606780 -0.000025  0.000065 -0.000053
  2C   3s         0.001751  0.000237  0.037962  0.000271 -0.000541  0.000301
  2C   4s        -0.007363  0.001452 -0.019872 -0.001172  0.001345 -0.000426
  2C   5s         0.002283 -0.003549  0.025600 -0.003620  0.002395  0.007070
  2C   1pz        0.000000  0.000000  0.000000  0.000000 -0.000000 -0.000000
  2C   1px       -0.000130 -0.000230 -0.000922 -0.000088  0.000121  0.000039
  2C   1py        0.000114  0.000151  0.000738  0.000011 -0.000118  0.000068
  2C   2pz       -0.000000 -0.000000 -0.000000 -0.000000  0.000000  0.000000
  2C   2px        0.005113  0.000418  0.001867  0.000670 -0.000859 -0.000360
  2C   2py       -0.003073  0.001103 -0.002497  0.000349  0.000426 -0.000949
  2C   3pz       -0.000000 -0.000000 -0.000000 -0.000000  0.000000 -0.000000
  2C   3px        0.000832  0.001070  0.000672  0.000005 -0.000217  0.000298
  2C   3py       -0.000298  0.000171  0.003136 -0.002205  0.001087  0.001909
  2C   1dz2       0.000287 -0.000171 -0.000145 -0.000036  0.000022  0.000043
  2C   1dxz       0.000000 -0.000000 -0.000000 -0.000000 -0.000000  0.000000
  2C   1dyz      -0.000000  0.000000  0.000000  0.000000 -0.000000 -0.000000
  2C   1dx2y2    -0.000256 -0.000056  0.000088 -0.000033  0.000055 -0.000020
  2C   1dxy       0.000396 -0.000123 -0.000175  0.000005  0.000006 -0.000055
  2C   2dz2       0.001595  0.001208  0.000643  0.000257 -0.000409 -0.000192
  2C   2dxz       0.000000  0.000000  0.000000 -0.000000 -0.000000  0.000000
  2C   2dyz      -0.000000 -0.000000 -0.000000 -0.000000  0.000000 -0.000000
  2C   2dx2y2    -0.001481  0.000630 -0.000021  0.000395 -0.000285 -0.000446
  2C   2dxy       0.002388 -0.000155  0.000598 -0.000074 -0.000283  0.000492
  2C   1f0        0.000000 -0.000000 -0.000000 -0.000000 -0.000000  0.000000
  2C   1f+1      -0.000458  0.000009  0.001643  0.000007  0.000028 -0.000080
  2C   1f-1       0.000324  0.000083  0.000722 -0.000080 -0.000026  0.000152
  2C   1f+2      -0.000000  0.000000  0.000000  0.000000 -0.000000 -0.000000
  2C   1f-2       0.000000  0.000000 -0.000000 -0.000000 -0.000000  0.000000
  2C   1f+3      -0.000011  0.000066 -0.000404  0.000072 -0.000057 -0.000132
  2C   1f-3       0.000650 -0.000010 -0.001280  0.000056 -0.000053 -0.000068
  3H   1s        -0.000067  0.000110 -0.000009  0.000785 -0.000183  0.000127
  3H   2s        -0.000064  0.000792  0.000351  0.001081 -0.001431 -0.001311
  3H   3s         0.000298  0.000029  0.000938  0.001049 -0.000002  0.001502
  3H   1pz       -0.000000  0.000000  0.000000  0.000000 -0.000000  0.000000
  3H   1px        0.000015 -0.000153 -0.000064 -0.001906  0.000454 -0.000324
  3H   1py        0.000034 -0.000237  0.000014 -0.001207 -0.000045  0.000538
  4C   1s        -0.000008  0.000067 -0.000012 -0.009032  0.011670 -0.000892
  4C   2s         0.000039 -0.000035  0.000003 -0.011966  0.015389 -0.001127
  4C   3s        -0.000611  0.000777 -0.000268 -0.000025  0.000310  0.000418
  4C   4s         0.000929  0.001847  0.000305 -0.010118  0.009873 -0.008550
  4C   5s         0.004329  0.014662 -0.009664  0.023091 -0.022394  0.009628
  4C   1pz        0.000000 -0.000000  0.000000  0.000000  0.000000 -0.000000
  4C   1px       -0.000032  0.000052 -0.000015 -0.000524 -0.000528  0.000218
  4C   1py        0.000059 -0.000134  0.000016 -0.000076  0.000022 -0.000079
  4C   2pz       -0.000000  0.000000 -0.000000 -0.000000 -0.000001  0.000000
  4C   2px        0.001434 -0.001932  0.000632  0.012610  0.012949 -0.006890
  4C   2py        0.000059 -0.001385  0.000086  0.002309 -0.001111  0.004810
  4C   3pz       -0.000000 -0.000000  0.000000 -0.000000 -0.000000  0.000000
  4C   3px       -0.000031  0.000238 -0.002791  0.005378  0.003186 -0.001093
  4C   3py       -0.002505 -0.005006  0.003739 -0.004971  0.005244 -0.003267
  4C   1dz2       0.000040 -0.000078 -0.000000 -0.000237  0.000230  0.000104
  4C   1dxz       0.000000 -0.000000 -0.000000 -0.000000  0.000000  0.000000
  4C   1dyz      -0.000000  0.000000  0.000000  0.000000  0.000000 -0.000000
  4C   1dx2y2     0.000030  0.000014 -0.000011  0.000182 -0.000116  0.000017
  4C   1dxy      -0.000023  0.000013 -0.000029 -0.000325 -0.000360 -0.000027
  4C   2dz2      -0.000479 -0.000065 -0.000098  0.000226 -0.000139  0.000377
  4C   2dxz      -0.000000 -0.000000  0.000000 -0.000000 -0.000000  0.000000
  4C   2dyz       0.000000 -0.000000  0.000000  0.000000  0.000000 -0.000000
  4C   2dx2y2    -0.000251  0.001196 -0.000337  0.001909 -0.000575 -0.000505
  4C   2dxy      -0.000611  0.000932 -0.000241 -0.006699 -0.006945  0.002494
  4C   1f0        0.000000 -0.000000  0.000000  0.000000  0.000000 -0.000000
  4C   1f+1      -0.000025  0.000032 -0.000026 -0.000910 -0.000881  0.000115
  4C   1f-1       0.000001  0.000056 -0.000008  0.000238 -0.000334 -0.000104
  4C   1f+2      -0.000000  0.000000 -0.000000 -0.000000 -0.000000  0.000000
  4C   1f-2       0.000000  0.000000  0.000000  0.000000 -0.000000 -0.000000
  4C   1f+3       0.000012 -0.000012  0.000004 -0.000190  0.000054 -0.000066
  4C   1f-3       0.000047  0.000063  0.000032  0.000848 -0.000893  0.000121
  5C   1s        -0.000044 -0.468016  0.000339  0.000091  0.000025 -0.001527
  5C   2s         0.000220 -0.606379  0.000536  0.000078  0.000079 -0.001744
  5C   3s         0.001290 -0.044978 -0.001857 -0.001390  0.000939  0.000230
  5C   4s        -0.000682  0.034448  0.010971  0.016632 -0.015050  0.003062
  5C   5s        -0.018053 -0.048345  0.014977 -0.015842  0.015067 -0.017305
  5C   1pz       -0.000000  0.000000 -0.000000  0.000000  0.000000 -0.000000
  5C   1px        0.000033 -0.000050  0.000080 -0.000379 -0.000456  0.000578
  5C   1py       -0.000079  0.000405 -0.000036 -0.000225  0.000226 -0.000043
  5C   2pz        0.000000 -0.000000  0.000000 -0.000000 -0.000001  0.000001
  5C   2px       -0.001340  0.003182 -0.001992  0.011180  0.013731 -0.013488
  5C   2py        0.009969  0.003056  0.005675  0.009411 -0.008026  0.000718
  5C   3pz       -0.000000 -0.000000  0.000000  0.000000  0.000000 -0.000000
  5C   3px       -0.001563  0.000652  0.003477 -0.008775 -0.004483  0.004956
  5C   3py       -0.016868 -0.024020  0.018709 -0.007165  0.006126 -0.001289
  5C   1dz2       0.000249  0.001731  0.000116 -0.000144  0.000138  0.000304
  5C   1dxz       0.000000  0.000000  0.000000 -0.000000  0.000000  0.000000
  5C   1dyz      -0.000000 -0.000000 -0.000000  0.000000 -0.000000  0.000000
  5C   1dx2y2     0.000295  0.000266 -0.000040 -0.000023  0.000040 -0.000054
  5C   1dxy       0.000032 -0.000206  0.000131 -0.000006 -0.000006 -0.000219
  5C   2dz2       0.002212 -0.002339 -0.002023 -0.001401  0.000983  0.000801
  5C   2dxz      -0.000000 -0.000000 -0.000000 -0.000000  0.000000 -0.000000
  5C   2dyz      -0.000000 -0.000000  0.000000 -0.000000 -0.000000  0.000000
  5C   2dx2y2     0.007092  0.000851  0.004144  0.002203 -0.003277 -0.001097
  5C   2dxy      -0.002081  0.001996 -0.000625  0.005581  0.005893 -0.008778
  5C   1f0       -0.000000 -0.000000 -0.000000  0.000000  0.000000 -0.000000
  5C   1f+1      -0.000070 -0.000070  0.000065 -0.000311 -0.000365  0.000879
  5C   1f-1      -0.000724 -0.000574 -0.000071 -0.000318  0.000285  0.000304
  5C   1f+2      -0.000000 -0.000000 -0.000000 -0.000000 -0.000000  0.000000
  5C   1f-2      -0.000000  0.000000 -0.000000 -0.000000  0.000000  0.000000
  5C   1f+3      -0.000051  0.000076 -0.000123  0.000097  0.000078 -0.000117
  5C   1f-3       0.000393  0.001249 -0.000195 -0.000047 -0.000027  0.001098
  6H   1s        -0.000108  0.000061 -0.000750  0.000086 -0.000030 -0.000106
  6H   2s        -0.000176  0.001447 -0.002477  0.000859 -0.000436 -0.001209
  6H   3s        -0.000456  0.000443 -0.002606 -0.000980  0.000315  0.000178
  6H   1pz        0.000000 -0.000000  0.000000 -0.000000  0.000000  0.000000
  6H   1px       -0.000190  0.000030 -0.000547  0.000043 -0.000029 -0.000029
  6H   1py        0.000160  0.000218 -0.002370  0.000214 -0.000075 -0.000301
  7H   1s        -0.000092  0.000135 -0.000005  0.000171 -0.000771 -0.000162
  7H   2s        -0.000252  0.000766 -0.000042  0.001392 -0.001090 -0.001017
  7H   3s         0.000614 -0.000407  0.000167  0.000079 -0.001516 -0.000137
  7H   1pz        0.000000 -0.000000 -0.000000 -0.000000  0.000000  0.000000
  7H   1px       -0.000027  0.000137  0.000033  0.000418 -0.002048 -0.000180
  7H   1py        0.000076 -0.000273  0.000061  0.000075  0.000983  0.000117
  8C   1s        -0.000014 -0.001421  0.000020 -0.036113 -0.013879  0.466326
  8C   2s         0.000073 -0.002091 -0.000008 -0.047051 -0.017834  0.604460
  8C   3s        -0.001444  0.001762  0.000471 -0.002194 -0.001747  0.041343
  8C   4s         0.006101 -0.017438 -0.002497 -0.011805 -0.006811 -0.010077
  8C   5s         0.018816  0.037865 -0.019455  0.030976 -0.005006  0.028838
  8C   1pz       -0.000000  0.000000 -0.000000  0.000000 -0.000000  0.000000
  8C   1px        0.000104 -0.000049 -0.000026 -0.000265  0.000138 -0.000854
  8C   1py       -0.000146  0.000298 -0.000217 -0.000562  0.000051  0.000261
  8C   2pz        0.000000 -0.000000 -0.000000 -0.000000 -0.000000  0.000000
  8C   2px       -0.000135  0.002704  0.002744  0.009574  0.003011 -0.003814
  8C   2py        0.005593 -0.003560  0.005773  0.015029 -0.003690 -0.002538
  8C   3pz        0.000000  0.000001 -0.000000  0.000000 -0.000000  0.000000
  8C   3px       -0.007413 -0.011670  0.012037 -0.008950  0.001288 -0.001085
  8C   3py        0.004476  0.004993 -0.002515 -0.000698 -0.000967  0.007825
  8C   1dz2       0.000067 -0.000202  0.000029 -0.000091  0.000186 -0.001628
  8C   1dxz       0.000000 -0.000000  0.000000  0.000000  0.000000 -0.000000
  8C   1dyz      -0.000000 -0.000000  0.000000  0.000000 -0.000000  0.000000
  8C   1dx2y2     0.000048  0.000126 -0.000041 -0.000346  0.000067 -0.000189
  8C   1dxy       0.000030  0.000254 -0.000041 -0.000138 -0.000064  0.000369
  8C   2dz2      -0.001368  0.001342  0.000172  0.000448  0.000452 -0.000601
  8C   2dxz      -0.000000  0.000000 -0.000000  0.000000 -0.000000 -0.000000
  8C   2dyz       0.000000 -0.000000  0.000000  0.000000  0.000000 -0.000000
  8C   2dx2y2    -0.000132  0.001471 -0.000210 -0.007669  0.000868  0.001159
  8C   2dxy      -0.002148  0.002689 -0.002088 -0.004168 -0.000590  0.000772
  8C   1f0       -0.000000 -0.000000  0.000000 -0.000000  0.000000  0.000000
  8C   1f+1       0.000045  0.000392 -0.000089 -0.000164 -0.000071 -0.000302
  8C   1f-1      -0.000076  0.000460 -0.000176 -0.001056  0.000117  0.000154
  8C   1f+2       0.000000  0.000000 -0.000000 -0.000000  0.000000 -0.000000
  8C   1f-2       0.000000  0.000000  0.000000 -0.000000 -0.000000  0.000000
  8C   1f+3       0.000097 -0.000265  0.000143 -0.000037 -0.000000 -0.000317
  8C   1f-3       0.000196  0.000781  0.000135  0.000812 -0.000197  0.001511
  9H   1s        -0.000106 -0.000134  0.000028  0.000137  0.000051 -0.000136
  9H   2s        -0.000454  0.002729 -0.001129  0.001154 -0.001706 -0.001412
  9H   3s         0.001847  0.001099 -0.002807 -0.000049  0.000400  0.000131
  9H   1pz        0.000000 -0.000000  0.000000 -0.000000 -0.000000  0.000000
  9H   1px       -0.000241  0.000662 -0.000110  0.000194  0.000170 -0.000452
  9H   1py        0.000170 -0.000368 -0.000031  0.000093 -0.000830  0.000019
 10O   1s        -0.436018  0.000005 -0.000002 -0.000002  0.000003  0.000001
 10O   2s        -0.638088  0.000202 -0.000139  0.000038 -0.000052 -0.000024
 10O   3s        -0.040153 -0.002389  0.001478 -0.000540  0.000769  0.000056
 10O   4s         0.037246  0.006168 -0.002220  0.001948 -0.003164  0.000127
 10O   5s        -0.009994 -0.011765  0.007993  0.000959 -0.000871  0.000692
 10O   1pz        0.000000 -0.000000 -0.000000  0.000000 -0.000000 -0.000000
 10O   1px       -0.001723 -0.000021  0.000399 -0.000078  0.000025  0.000150
 10O   1py       -0.001218 -0.000539 -0.000326 -0.000130  0.000119  0.000090
 10O   2pz       -0.000000  0.000000  0.000000 -0.000000 -0.000000  0.000000
 10O   2px        0.004181  0.000447 -0.001598  0.000527 -0.000124 -0.000759
 10O   2py        0.004875  0.002783  0.001830  0.001383 -0.001510 -0.000234
 10O   3pz       -0.000000 -0.000000 -0.000000 -0.000000  0.000000  0.000000
 10O   3px        0.001650 -0.000765  0.001589  0.002403 -0.000542 -0.002185
 10O   3py       -0.001313 -0.003943  0.002218 -0.000848  0.000598  0.001881
 10O   1dz2       0.000317  0.000010 -0.000080 -0.000004  0.000027 -0.000017
 10O   1dxz       0.000000 -0.000000 -0.000000 -0.000000  0.000000 -0.000000
 10O   1dyz      -0.000000  0.000000  0.000000  0.000000 -0.000000 -0.000000
 10O   1dx2y2     0.000147  0.000250  0.000168 -0.000007  0.000002  0.000035
 10O   1dxy       0.000255 -0.000107 -0.000211 -0.000062 -0.000002  0.000135
 10O   2dz2      -0.001897 -0.000750  0.000777 -0.000134  0.000098 -0.000057
 10O   2dxz      -0.000000  0.000000  0.000000  0.000000  0.000000  0.000000
 10O   2dyz       0.000000  0.000000 -0.000000 -0.000000 -0.000000  0.000000
 10O   2dx2y2    -0.001074 -0.002182 -0.001222 -0.000191  0.000222 -0.000337
 10O   2dxy      -0.001334  0.000655  0.001627  0.000408  0.000115 -0.000819
 10O   1f0        0.000000 -0.000000 -0.000000  0.000000 -0.000000  0.000000
 10O   1f+1      -0.000167 -0.000020  0.000388 -0.000005  0.000025 -0.000009
 10O   1f-1      -0.000045 -0.000488 -0.000212  0.000015 -0.000031 -0.000031
 10O   1f+2      -0.000000 -0.000000  0.000000 -0.000000  0.000000 -0.000000
 10O   1f-2       0.000000  0.000000 -0.000000  0.000000 -0.000000  0.000000
 10O   1f+3       0.000025  0.000163  0.000062  0.000010 -0.000015 -0.000017
 10O   1f-3       0.000449  0.000688 -0.000520  0.000045 -0.000057  0.000110
 11H   1s        -0.000081  0.000093 -0.000028 -0.000044  0.000045 -0.000164
 11H   2s        -0.000462  0.001010 -0.000405  0.001619 -0.001527 -0.001080
 11H   3s         0.000907  0.000484 -0.000611 -0.000792  0.000832  0.000403
 11H   1pz       -0.000000 -0.000000 -0.000000 -0.000000 -0.000000  0.000000
 11H   1px        0.000024 -0.000032  0.000011  0.000690  0.000665 -0.000101
 11H   1py        0.000099 -0.000159  0.000059 -0.000236  0.000291  0.000304
 12H   1s        -0.000067 -0.000104 -0.000593 -0.000088  0.000029  0.000111
 12H   2s        -0.000206 -0.000902 -0.002944  0.000477  0.000011 -0.000414
 12H   3s        -0.001208  0.000542 -0.005042  0.000783 -0.000453 -0.001874
 12H   1pz        0.000077 -0.000074 -0.001950  0.000045 -0.000004 -0.000054
 12H   1px       -0.000086  0.000167  0.001204 -0.000015 -0.000005  0.000001
 12H   1py       -0.000012  0.000122  0.000462  0.000097 -0.000042 -0.000151
 13H   1s        -0.000067 -0.000104 -0.000593 -0.000088  0.000029  0.000111
 13H   2s        -0.000206 -0.000902 -0.002944  0.000477  0.000011 -0.000414
 13H   3s        -0.001208  0.000542 -0.005042  0.000783 -0.000453 -0.001874
 13H   1pz       -0.000076  0.000074  0.001950 -0.000045  0.000004  0.000054
 13H   1px       -0.000086  0.000167  0.001204 -0.000015 -0.000005  0.000001
 13H   1py       -0.000012  0.000122  0.000462  0.000097 -0.000042 -0.000151
 14C   1s        -0.000008  0.000028 -0.000015 -0.466447  0.001595 -0.036175
 14C   2s         0.000036  0.000019 -0.000003 -0.604694  0.002127 -0.046653
 14C   3s         0.000741 -0.000688  0.000550 -0.040934  0.000224 -0.003976
 14C   4s        -0.007726  0.007215 -0.003994  0.008177 -0.007022  0.011849
 14C   5s        -0.009713 -0.020519  0.013666 -0.035087  0.007715 -0.024885
 14C   1pz       -0.000000  0.000000 -0.000000 -0.000000  0.000000 -0.000000
 14C   1px       -0.000001 -0.000009 -0.000027  0.000657 -0.000225  0.000349
 14C   1py       -0.000055  0.000211 -0.000055  0.000504  0.000272 -0.000288
 14C   2pz       -0.000000 -0.000000  0.000000 -0.000000 -0.000000  0.000000
 14C   2px        0.001571 -0.001441  0.000529  0.001900  0.009979 -0.006197
 14C   2py        0.003861 -0.006152  0.002358  0.003256 -0.007047  0.006090
 14C   3pz       -0.000000 -0.000000  0.000000 -0.000000  0.000000  0.000000
 14C   3px        0.000945  0.003705 -0.005612  0.008955 -0.001493  0.000337
 14C   3py        0.002505  0.003724 -0.001117  0.001513 -0.000912  0.007267
 14C   1dz2       0.000093 -0.000070  0.000047  0.001537  0.000091  0.000371
 14C   1dxz       0.000000 -0.000000  0.000000  0.000000  0.000000  0.000000
 14C   1dyz      -0.000000  0.000000 -0.000000 -0.000000 -0.000000 -0.000000
 14C   1dx2y2     0.000064  0.000012  0.000059  0.000145 -0.000069  0.000352
 14C   1dxy      -0.000021  0.000009  0.000056  0.000327  0.000003  0.000016
 14C   2dz2       0.000783 -0.000611  0.000577  0.000724  0.000227 -0.000259
 14C   2dxz       0.000000  0.000000  0.000000  0.000000  0.000000 -0.000000
 14C   2dyz      -0.000000  0.000000 -0.000000 -0.000000 -0.000000 -0.000000
 14C   2dx2y2     0.001004 -0.001830  0.000690  0.000702 -0.004131  0.005399
 14C   2dxy      -0.000044  0.000833 -0.000413  0.000180  0.002622 -0.001157
 14C   1f0        0.000000  0.000000 -0.000000 -0.000000  0.000000 -0.000000
 14C   1f+1      -0.000045  0.000013 -0.000011  0.000266 -0.000264  0.000253
 14C   1f-1      -0.000088  0.000199 -0.000090  0.000196  0.000218 -0.000820
 14C   1f+2      -0.000000 -0.000000 -0.000000 -0.000000 -0.000000 -0.000000
 14C   1f-2       0.000000  0.000000  0.000000  0.000000  0.000000 -0.000000
 14C   1f+3       0.000023 -0.000091 -0.000040 -0.000236 -0.000015 -0.000184
 14C   1f-3       0.000114  0.000088  0.000122  0.001372 -0.000133  0.000992
 15H   1s        -0.000105 -0.000174  0.000063  0.000002 -0.000108 -0.000782
 15H   2s        -0.001507  0.002658 -0.001454  0.002330 -0.001019 -0.001951
 15H   3s         0.002731  0.000584 -0.005052  0.000143  0.000094 -0.002674
 15H   1pz       -0.000000  0.000000 -0.000000  0.000000 -0.000000 -0.000000
 15H   1px        0.000343 -0.000525  0.000144 -0.000142  0.000150  0.002197
 15H   1py       -0.000026 -0.000349  0.000079  0.000905 -0.000012 -0.001000
                      6         7         8         9        10        11   
                  -9.88873  -9.88614  -0.97979  -0.77399  -0.68646  -0.67400
                   2.00000   2.00000   2.00000   2.00000   2.00000   2.00000
                  --------  --------  --------  --------  --------  --------
  0C   1s         0.017466 -0.011813 -0.001288 -0.044553 -0.008687 -0.062619
  0C   2s         0.022401 -0.015054 -0.002693 -0.093050 -0.018259 -0.131582
  0C   3s         0.002442 -0.001766  0.003175  0.141896  0.028913  0.206222
  0C   4s        -0.013338  0.010372  0.007971  0.131881  0.026431  0.189015
  0C   5s         0.020779 -0.019623 -0.038910  0.014450  0.013444  0.023110
  0C   1pz       -0.000000  0.000000 -0.000000 -0.000002 -0.000001 -0.000001
  0C   1px        0.000280  0.000148  0.001354  0.040795  0.030187  0.013326
  0C   1py        0.000343  0.000543 -0.002003 -0.020912  0.048299 -0.015329
  0C   2pz        0.000000  0.000000 -0.000000 -0.000001 -0.000000 -0.000000
  0C   2px       -0.005789 -0.004587 -0.001088  0.027631  0.022283  0.001874
  0C   2py       -0.005481 -0.013678 -0.007386 -0.010055  0.035881 -0.003792
  0C   3pz       -0.000000  0.000000  0.000000  0.000000 -0.000000  0.000000
  0C   3px        0.002788 -0.005249 -0.006741 -0.000457  0.011194 -0.005172
  0C   3py       -0.004467 -0.001565  0.012086  0.001566  0.012127 -0.003033
  0C   1dz2      -0.000300  0.000298 -0.000289 -0.005361 -0.000922 -0.006238
  0C   1dxz      -0.000000  0.000000 -0.000000 -0.000000 -0.000000 -0.000000
  0C   1dyz       0.000000  0.000000  0.000000  0.000000 -0.000000  0.000000
  0C   1dx2y2    -0.000357 -0.000203 -0.000270 -0.000330  0.003374 -0.002122
  0C   1dxy      -0.000050 -0.000343 -0.000038  0.000486  0.002605  0.002068
  0C   2dz2       0.000378 -0.000044 -0.001045 -0.005582 -0.000479 -0.004652
  0C   2dxz       0.000000  0.000000  0.000000 -0.000000 -0.000000 -0.000000
  0C   2dyz       0.000000  0.000000  0.000000  0.000000 -0.000000  0.000000
  0C   2dx2y2    -0.004653 -0.005085 -0.002317  0.000789  0.006939 -0.002067
  0C   2dxy      -0.002222 -0.005694 -0.000841  0.001173  0.005082  0.002385
  0C   1f0        0.000000 -0.000000  0.000000  0.000000  0.000000  0.000000
  0C   1f+1       0.000155  0.000649  0.000057 -0.001248 -0.000771 -0.000244
  0C   1f-1       0.000861  0.000712  0.000335  0.000585 -0.001167  0.000311
  0C   1f+2       0.000000  0.000000  0.000000 -0.000000 -0.000000  0.000000
  0C   1f-2       0.000000  0.000000 -0.000000 -0.000000 -0.000000 -0.000000
  0C   1f+3       0.000117 -0.000247 -0.000260  0.000353 -0.000322  0.000577
  0C   1f-3      -0.000951  0.000955 -0.000368 -0.001926 -0.000401 -0.003045
  1C   1s        -0.467601  0.001680 -0.007488 -0.044588  0.039128 -0.037917
  1C   2s        -0.606099  0.002213 -0.015315 -0.093135  0.082099 -0.079627
  1C   3s        -0.041739  0.000161  0.022422  0.142487 -0.128720  0.122157
  1C   4s         0.009206 -0.005167  0.010339  0.126535 -0.105049  0.126669
  1C   5s        -0.029084  0.003498  0.046229  0.029863 -0.042169  0.036910
  1C   1pz        0.000000  0.000000 -0.000001 -0.000001  0.000002  0.000002
  1C   1px       -0.000823 -0.000136  0.010486  0.039826 -0.033941 -0.025292
  1C   1py       -0.000443  0.000362 -0.010516  0.025143  0.039876  0.057470
  1C   2pz        0.000000 -0.000000 -0.000000 -0.000000  0.000001  0.000001
  1C   2px       -0.006450  0.003625  0.007256  0.019916 -0.011194 -0.022878
  1C   2py        0.004295 -0.014122 -0.012128  0.024413  0.024735  0.041639
  1C   3pz        0.000000 -0.000000 -0.000000 -0.000000  0.000001 -0.000000
  1C   3px       -0.002827 -0.000118  0.013018  0.005030 -0.015391  0.002269
  1C   3py       -0.002520 -0.000564  0.021324  0.004831  0.013619  0.002056
  1C   1dz2       0.001636  0.000071 -0.000972 -0.005457  0.003955 -0.003822
  1C   1dxz       0.000000  0.000000 -0.000000 -0.000000  0.000000 -0.000000
  1C   1dyz      -0.000000 -0.000000  0.000000  0.000000 -0.000000  0.000000
  1C   1dx2y2     0.000177  0.000040 -0.000386 -0.000130 -0.001327 -0.004985
  1C   1dxy       0.000432 -0.000038 -0.001368 -0.000570  0.003835  0.000210
  1C   2dz2       0.000462 -0.000035 -0.000607 -0.004528  0.002456 -0.004831
  1C   2dxz       0.000000 -0.000000 -0.000000 -0.000000  0.000000  0.000000
  1C   2dyz      -0.000000  0.000000  0.000000  0.000000 -0.000000  0.000000
  1C   2dx2y2    -0.002583  0.004731  0.000745 -0.002418 -0.001776 -0.012186
  1C   2dxy       0.001398 -0.002310 -0.001387  0.001186  0.002553  0.000290
  1C   1f0        0.000000  0.000000  0.000000  0.000000 -0.000000 -0.000000
  1C   1f+1      -0.000234 -0.000093 -0.000681 -0.000975  0.000600  0.000514
  1C   1f-1      -0.000221  0.000329  0.000677 -0.000965 -0.001001 -0.001256
  1C   1f+2       0.000000 -0.000000  0.000000 -0.000000  0.000000 -0.000000
  1C   1f-2      -0.000000  0.000000  0.000000  0.000000 -0.000000  0.000000
  1C   1f+3       0.000260 -0.000032  0.001082 -0.000370 -0.000390  0.000367
  1C   1f-3      -0.001530  0.000167 -0.000280  0.001887 -0.001654  0.002075
  2C   1s        -0.000010  0.000007 -0.030812  0.014961 -0.051656 -0.011288
  2C   2s        -0.000038  0.000026 -0.064077  0.031407 -0.108749 -0.023861
  2C   3s         0.000753 -0.000284  0.100346 -0.050081  0.173506  0.039903
  2C   4s        -0.001999  0.000743  0.089956 -0.051637  0.194113  0.039532
  2C   5s        -0.004817  0.003677 -0.006550 -0.021337  0.020962  0.007683
  2C   1pz        0.000000 -0.000000  0.000003 -0.000001  0.000001  0.000001
  2C   1px       -0.000193  0.000081 -0.057432  0.020933 -0.026277 -0.014506
  2C   1py        0.000185 -0.000064  0.038259 -0.006761  0.001496 -0.005585
  2C   2pz       -0.000000  0.000000  0.000002 -0.000001  0.000001  0.000000
  2C   2px        0.001729 -0.000535 -0.029737  0.015432 -0.020820 -0.008811
  2C   2py       -0.001137  0.000107  0.024856 -0.003430  0.003342 -0.007015
  2C   3pz       -0.000000  0.000000  0.000000 -0.000000  0.000000  0.000000
  2C   3px        0.000786 -0.000000 -0.000749  0.003004 -0.002591 -0.000896
  2C   3py       -0.001838  0.001955 -0.000149 -0.007070 -0.005172 -0.001215
  2C   1dz2       0.000006  0.000026 -0.004594  0.001097 -0.001166 -0.000462
  2C   1dxz       0.000000  0.000000 -0.000001  0.000000 -0.000000 -0.000000
  2C   1dyz       0.000000 -0.000000  0.000000 -0.000000  0.000000  0.000000
  2C   1dx2y2    -0.000107  0.000047  0.002940 -0.001593  0.002340  0.001245
  2C   1dxy      -0.000020  0.000002 -0.007145  0.001623 -0.001221 -0.000466
  2C   2dz2       0.000575 -0.000222 -0.002057  0.001766 -0.002805  0.000820
  2C   2dxz       0.000000  0.000000 -0.000000  0.000000 -0.000000 -0.000000
  2C   2dyz      -0.000000  0.000000  0.000000 -0.000000  0.000000 -0.000000
  2C   2dx2y2     0.000028 -0.000336  0.001197 -0.001146  0.002754  0.002601
  2C   2dxy       0.000890 -0.000085 -0.005907  0.001631 -0.001362  0.000273
  2C   1f0        0.000000 -0.000000 -0.000000  0.000000 -0.000000 -0.000000
  2C   1f+1      -0.000109  0.000011  0.002310 -0.001118  0.003142  0.000731
  2C   1f-1       0.000092  0.000024 -0.000136 -0.000263  0.000588  0.000549
  2C   1f+2      -0.000000 -0.000000  0.000000 -0.000000  0.000000  0.000000
  2C   1f-2       0.000000  0.000000 -0.000000  0.000000 -0.000000 -0.000000
  2C   1f+3       0.000041 -0.000060 -0.000946  0.000078  0.000224  0.000057
  2C   1f-3       0.000138 -0.000032 -0.002396  0.001221 -0.002545 -0.000838
  3H   1s         0.000159  0.000067  0.000273  0.021228  0.032413 -0.026519
  3H   2s         0.001128 -0.001393 -0.000008  0.022286  0.034744 -0.027730
  3H   3s        -0.000076  0.001282 -0.001062 -0.001764  0.003522 -0.002053
  3H   1pz        0.000000 -0.000000 -0.000000  0.000000  0.000000 -0.000000
  3H   1px       -0.000125  0.000511  0.000055 -0.003774 -0.005161  0.002432
  3H   1py       -0.000118 -0.000547 -0.000050 -0.002380 -0.002431  0.004129
  4C   1s         0.002110  0.467691 -0.000735 -0.044169 -0.044640 -0.027087
  4C   2s         0.002704  0.606278 -0.001519 -0.092204 -0.093690 -0.056909
  4C   3s        -0.000370  0.041016  0.002266  0.140111  0.145378  0.088605
  4C   4s         0.008739 -0.007885  0.002123  0.129466  0.137157  0.085055
  4C   5s        -0.009567  0.033505  0.019276  0.023348  0.008786  0.006237
  4C   1pz       -0.000000 -0.000000 -0.000000 -0.000001 -0.000001  0.000002
  4C   1px        0.000226  0.000032  0.000119  0.002332  0.025869 -0.069986
  4C   1py        0.000107 -0.000889 -0.001303 -0.045955 -0.018133 -0.012891
  4C   2pz        0.000000 -0.000000  0.000000 -0.000000 -0.000001  0.000002
  4C   2px       -0.006485  0.000156 -0.002575  0.001363  0.018406 -0.051936
  4C   2py       -0.005661 -0.003182 -0.001657 -0.029141 -0.006487 -0.005951
  4C   3pz        0.000000 -0.000000 -0.000000 -0.000000 -0.000000  0.000001
  4C   3px        0.000195 -0.000813  0.002413  0.003408  0.009997 -0.016933
  4C   3py        0.002765 -0.006059 -0.008666  0.001098  0.005363  0.000977
  4C   1dz2      -0.000108 -0.001594 -0.000117 -0.005390 -0.004634 -0.002768
  4C   1dxz      -0.000000 -0.000000 -0.000000 -0.000000 -0.000000 -0.000000
  4C   1dyz       0.000000  0.000000  0.000000  0.000000  0.000000 -0.000000
  4C   1dx2y2    -0.000003  0.000350  0.000008  0.000588  0.002169  0.000727
  4C   1dxy      -0.000009  0.000043 -0.000012  0.000082 -0.001687  0.005307
  4C   2dz2      -0.000467 -0.000889 -0.000161 -0.005245 -0.004139 -0.002503
  4C   2dxz       0.000000 -0.000000 -0.000000 -0.000000 -0.000000 -0.000000
  4C   2dyz      -0.000000  0.000000 -0.000000  0.000000  0.000000 -0.000000
  4C   2dx2y2    -0.000061  0.001057  0.000067  0.000435  0.003507  0.001060
  4C   2dxy       0.002647  0.000138  0.001159 -0.000074 -0.003158  0.010412
  4C   1f0       -0.000000 -0.000000 -0.000000  0.000000  0.000000 -0.000000
  4C   1f+1       0.000148  0.000021  0.000031 -0.000068 -0.000613  0.001564
  4C   1f-1       0.000124 -0.000301  0.000080  0.001356  0.000368  0.000271
  4C   1f+2       0.000000 -0.000000  0.000000 -0.000000 -0.000000  0.000000
  4C   1f-2      -0.000000  0.000000  0.000000  0.000000  0.000000  0.000000
  4C   1f+3      -0.000004 -0.000256  0.000057 -0.000261 -0.000177 -0.000877
  4C   1f-3      -0.000116  0.001549 -0.000053  0.001924  0.002258  0.001276
  5C   1s         0.001390  0.000031 -0.037487 -0.041462  0.049127  0.024720
  5C   2s         0.001508  0.000163 -0.077950 -0.086798  0.103586  0.052070
  5C   3s         0.001090  0.000513  0.123979  0.131591 -0.166059 -0.080913
  5C   4s        -0.007211 -0.014296  0.093703  0.153079 -0.175723 -0.094817
  5C   5s         0.016280  0.003938 -0.028164 -0.011408 -0.000602  0.001451
  5C   1pz       -0.000000  0.000000 -0.000001  0.000001 -0.000002  0.000003
  5C   1px        0.000698 -0.000036  0.000350 -0.005561  0.057524 -0.081383
  5C   1py       -0.000084 -0.000007 -0.080070  0.063359  0.018871 -0.017392
  5C   2pz        0.000001 -0.000000 -0.000000  0.000001 -0.000002  0.000002
  5C   2px       -0.018084  0.001429  0.001232 -0.006822  0.043020 -0.065155
  5C   2py       -0.000527 -0.005910 -0.037163  0.044487  0.007741 -0.010169
  5C   3pz        0.000000 -0.000000 -0.000000  0.000000  0.000001 -0.000001
  5C   3px       -0.001196  0.001816  0.000070 -0.006311 -0.013642  0.014469
  5C   3py       -0.000293  0.004454 -0.030039 -0.017775  0.004656  0.000492
  5C   1dz2      -0.000305  0.000147 -0.007144 -0.004634  0.005310  0.002313
  5C   1dxz      -0.000000  0.000000 -0.000000 -0.000000  0.000000  0.000000
  5C   1dyz       0.000000 -0.000000  0.000000  0.000000 -0.000000  0.000000
  5C   1dx2y2     0.000069  0.000003 -0.008813  0.002029 -0.000016 -0.001047
  5C   1dxy      -0.000153  0.000007 -0.000126  0.000762 -0.000322 -0.005360
  5C   2dz2       0.000153  0.001328 -0.004382 -0.008486  0.006941  0.004838
  5C   2dxz      -0.000000  0.000000 -0.000000 -0.000001  0.000001  0.000000
  5C   2dyz       0.000000  0.000000  0.000000  0.000000 -0.000000  0.000001
  5C   2dx2y2     0.004100 -0.003598 -0.002316  0.005097 -0.011502 -0.002437
  5C   2dxy      -0.010515  0.000058 -0.002549  0.000722  0.002284 -0.015532
  5C   1f0       -0.000000  0.000000  0.000000 -0.000000  0.000000 -0.000000
  5C   1f+1       0.000988 -0.000034 -0.000019  0.000262 -0.001448  0.001732
  5C   1f-1      -0.000399  0.000213  0.001634 -0.001606 -0.000596  0.000127
  5C   1f+2       0.000000 -0.000000  0.000000  0.000000 -0.000000  0.000000
  5C   1f-2      -0.000000  0.000000 -0.000000 -0.000000  0.000000  0.000000
  5C   1f+3       0.000198 -0.000006  0.000369 -0.000118  0.001753 -0.000639
  5C   1f-3      -0.000989  0.000244 -0.003734 -0.002241  0.003704  0.001677
  6H   1s        -0.000016 -0.000046  0.010743 -0.009729  0.042980  0.011759
[...]
      f0      :     0.002311  f :     0.014910
      f+1     :     0.000648
      f-1     :     0.001183
      f+2     :     0.002506
      f-2     :     0.001157
      f+3     :     0.005204
      f-3     :     0.001902

  6 H s       :     0.853376  s :     0.853376
      pz      :     0.004819  p :     0.020343
      px      :     0.003439
      py      :     0.012084

  7 H s       :     0.895098  s :     0.895098
      pz      :     0.005025  p :     0.021795
      px      :     0.011011
      py      :     0.005759

  8 C s       :     3.234382  s :     3.234382
      pz      :     1.045874  p :     2.900667
      px      :     0.926998
      py      :     0.927795
      dz2     :     0.005379  d :     0.080751
      dxz     :     0.007708
      dyz     :     0.018037
      dx2y2   :     0.022130
      dxy     :     0.027498
      f0      :     0.001505  f :     0.006962
      f+1     :     0.000655
      f-1     :     0.000567
      f+2     :     0.000795
      f-2     :     0.000506
      f+3     :     0.002016
      f-3     :     0.000918

  9 H s       :     0.902636  s :     0.902636
      pz      :     0.005286  p :     0.021961
      px      :     0.010101
      py      :     0.006575

 10 O s       :     3.734367  s :     3.734367
      pz      :     1.733589  p :     4.417201
      px      :     1.433519
      py      :     1.250093
      dz2     :     0.004712  d :     0.042847
      dxz     :     0.004658
      dyz     :     0.007174
      dx2y2   :     0.015134
      dxy     :     0.011169
      f0      :     0.000277  f :     0.002037
      f+1     :     0.000215
      f-1     :     0.000339
      f+2     :     0.000230
      f-2     :     0.000098
      f+3     :     0.000438
      f-3     :     0.000439

 11 H s       :     0.898644  s :     0.898644
      pz      :     0.005358  p :     0.021918
      px      :     0.004007
      py      :     0.012553

 12 H s       :     0.868638  s :     0.868638
      pz      :     0.009630  p :     0.020021
      px      :     0.005954
      py      :     0.004438

 13 H s       :     0.868638  s :     0.868638
      pz      :     0.009629  p :     0.020021
      px      :     0.005954
      py      :     0.004438

 14 C s       :     3.171696  s :     3.171696
      pz      :     0.965279  p :     2.835723
      px      :     0.935054
      py      :     0.935389
      dz2     :     0.004413  d :     0.092163
      dxz     :     0.009898
      dyz     :     0.020129
      dx2y2   :     0.021868
      dxy     :     0.035855
      f0      :     0.001492  f :     0.007157
      f+1     :     0.000600
      f-1     :     0.000567
      f+2     :     0.001105
      f-2     :     0.000333
      f+3     :     0.002200
      f-3     :     0.000860

 15 H s       :     0.888616  s :     0.888616
      pz      :     0.005748  p :     0.022600
      px      :     0.011035
      py      :     0.005817



                     *******************************
                     * LOEWDIN POPULATION ANALYSIS *
                     *******************************

----------------------
LOEWDIN ATOMIC CHARGES
----------------------
   0 C :   -0.140173
   1 C :   -0.115453
   2 C :   -0.331871
   3 H :    0.140694
   4 C :   -0.159934
   5 C :   -0.257146
   6 H :    0.113188
   7 H :    0.140910
   8 C :   -0.144094
   9 H :    0.145047
  10 O :    0.254213
  11 H :    0.138505
  12 H :    0.106268
  13 H :    0.106268
  14 C :   -0.140416
  15 H :    0.143996

-------------------------------
LOEWDIN REDUCED ORBITAL CHARGES
-------------------------------
  0 C s       :     2.769648  s :     2.769648
      pz      :     0.883359  p :     2.937438
      px      :     1.004907
      py      :     1.049173
      dz2     :     0.025445  d :     0.390073
      dxz     :     0.026329
      dyz     :     0.071112
      dx2y2   :     0.126086
      dxy     :     0.141100
      f0      :     0.002985  f :     0.043014
      f+1     :     0.003467
      f-1     :     0.004132
      f+2     :     0.005820
      f-2     :     0.003726
      f+3     :     0.015011
      f-3     :     0.007874

  1 C s       :     2.766426  s :     2.766426
      pz      :     0.913813  p :     2.941316
      px      :     0.990637
      py      :     1.036866
      dz2     :     0.026480  d :     0.365693
      dxz     :     0.030477
      dyz     :     0.055602
      dx2y2   :     0.104705
      dxy     :     0.148428
      f0      :     0.003216  f :     0.042019
      f+1     :     0.003702
      f-1     :     0.004064
      f+2     :     0.006366
      f-2     :     0.002564
      f+3     :     0.014024
      f-3     :     0.008082

  2 C s       :     2.864537  s :     2.864537
      pz      :     1.102618  p :     3.029622
      px      :     0.901491
      py      :     1.025513
      dz2     :     0.047874  d :     0.383799
      dxz     :     0.134972
      dyz     :     0.016549
      dx2y2   :     0.119963
      dxy     :     0.064441
      f0      :     0.006138  f :     0.053913
      f+1     :     0.006991
      f-1     :     0.004161
      f+2     :     0.002480
      f-2     :     0.009686
      f+3     :     0.013061
      f-3     :     0.011395

  3 H s       :     0.800563  s :     0.800563
      pz      :     0.013670  p :     0.058743
      px      :     0.027171
      py      :     0.017902

  4 C s       :     2.768059  s :     2.768059
      pz      :     0.912380  p :     2.963670
      px      :     1.066650
      py      :     0.984640
      dz2     :     0.025984  d :     0.385276
      dxz     :     0.075507
      dyz     :     0.012873
      dx2y2   :     0.166873
      dxy     :     0.104039
      f0      :     0.003123  f :     0.042929
      f+1     :     0.004418
      f-1     :     0.003278
      f+2     :     0.001337
      f-2     :     0.007472
      f+3     :     0.015366
      f-3     :     0.007935

  5 C s       :     2.716622  s :     2.716622
      pz      :     0.867477  p :     2.774203
      px      :     1.078330
      py      :     0.828395
      dz2     :     0.046310  d :     0.672544
      dxz     :     0.079455
      dyz     :     0.132634
      dx2y2   :     0.218726
      dxy     :     0.195418
      f0      :     0.005983  f :     0.093778
      f+1     :     0.004618
      f-1     :     0.009097
      f+2     :     0.016785
      f-2     :     0.007643
      f+3     :     0.033348
      f-3     :     0.016304

  6 H s       :     0.826480  s :     0.826480
      pz      :     0.013718  p :     0.060332
      px      :     0.010616
      py      :     0.035998

  7 H s       :     0.800385  s :     0.800385
      pz      :     0.013516  p :     0.058705
      px      :     0.029481
      py      :     0.015708

  8 C s       :     2.763354  s :     2.763354
      pz      :     0.941736  p :     2.970779
      px      :     0.988151
      py      :     1.040892
      dz2     :     0.026414  d :     0.367849
      dxz     :     0.024636
      dyz     :     0.062113
      dx2y2   :     0.114565
      dxy     :     0.140120
      f0      :     0.003140  f :     0.042112
      f+1     :     0.003644
      f-1     :     0.004174
      f+2     :     0.005419
      f-2     :     0.003680
      f+3     :     0.014006
      f-3     :     0.008050

  9 H s       :     0.795213  s :     0.795213
      pz      :     0.014416  p :     0.059740
      px      :     0.027448
      py      :     0.017876

 10 O s       :     3.256674  s :     3.256674
      pz      :     1.613423  p :     4.369846
      px      :     1.451570
      py      :     1.304853
      dz2     :     0.010678  d :     0.112599
      dxz     :     0.010871
      dyz     :     0.018291
      dx2y2   :     0.038326
      dxy     :     0.034433
      f0      :     0.000713  f :     0.006668
      f+1     :     0.000363
      f-1     :     0.000760
      f+2     :     0.000845
      f-2     :     0.000428
      f+3     :     0.002196
      f-3     :     0.001363

 11 H s       :     0.802327  s :     0.802327
      pz      :     0.014433  p :     0.059168
      px      :     0.011203
      py      :     0.033532

 12 H s       :     0.831545  s :     0.831545
      pz      :     0.030869  p :     0.062188
      px      :     0.017980
      py      :     0.013338

 13 H s       :     0.831545  s :     0.831545
      pz      :     0.030867  p :     0.062188
      px      :     0.017983
      py      :     0.013338

 14 C s       :     2.770281  s :     2.770281
      pz      :     0.886510  p :     2.936459
      px      :     1.013445
      py      :     1.036503
      dz2     :     0.025298  d :     0.390897
      dxz     :     0.032416
      dyz     :     0.066604
      dx2y2   :     0.113173
      dxy     :     0.153405
      f0      :     0.002979  f :     0.042780
      f+1     :     0.003547
      f-1     :     0.004034
      f+2     :     0.007155
      f-2     :     0.002373
      f+3     :     0.014902
      f-3     :     0.007790

 15 H s       :     0.794537  s :     0.794537
      pz      :     0.015724  p :     0.061467
      px      :     0.030178
      py      :     0.015565



                      *****************************
                      * MAYER POPULATION ANALYSIS *
                      *****************************

  NA   - Mulliken gross atomic population
  ZA   - Total nuclear charge
  QA   - Mulliken gross atomic charge
  VA   - Mayer's total valence
  BVA  - Mayer's bonded valence
  FA   - Mayer's free valence

  ATOM       NA         ZA         QA         VA         BVA        FA
  0 C      6.0639     6.0000    -0.0639     3.9493     3.9493    -0.0000
  1 C      6.1726     6.0000    -0.1726     3.9725     3.9725     0.0000
  2 C      6.1905     6.0000    -0.1905     3.9152     3.9152    -0.0000
  3 H      0.9131     1.0000     0.0869     0.9662     0.9662     0.0000
  4 C      6.1023     6.0000    -0.1023     3.9793     3.9793     0.0000
  5 C      5.7074     6.0000     0.2926     3.8900     3.8900     0.0000
  6 H      0.8737     1.0000     0.1263     0.9649     0.9649     0.0000
  7 H      0.9169     1.0000     0.0831     0.9638     0.9638    -0.0000
  8 C      6.2228     6.0000    -0.2228     3.8850     3.8850    -0.0000
  9 H      0.9246     1.0000     0.0754     0.9912     0.9912     0.0000
 10 O      8.1965     8.0000    -0.1965     2.2302     2.2302    -0.0000
 11 H      0.9206     1.0000     0.0794     0.9653     0.9653     0.0000
 12 H      0.8887     1.0000     0.1113     0.9672     0.9672    -0.0000
 13 H      0.8887     1.0000     0.1113     0.9672     0.9672    -0.0000
 14 C      6.1067     6.0000    -0.1067     3.9733     3.9733    -0.0000
 15 H      0.9112     1.0000     0.0888     0.9908     0.9908    -0.0000

  Mayer bond orders larger than 0.100000
B(  0-C ,  1-C ) :   1.4423 B(  0-C ,  4-C ) :   1.3986 B(  0-C ,  7-H ) :   0.9726 
B(  1-C ,  5-C ) :   1.3597 B(  1-C ,  9-H ) :   0.9820 B(  2-C ,  6-H ) :   0.9680 
B(  2-C , 10-O ) :   0.9799 B(  2-C , 12-H ) :   0.9618 B(  2-C , 13-H ) :   0.9618 
B(  3-H , 14-C ) :   0.9583 B(  4-C , 11-H ) :   0.9679 B(  4-C , 14-C ) :   1.4365 
B(  5-C ,  8-C ) :   1.3013 B(  5-C , 10-O ) :   1.1600 B(  8-C , 14-C ) :   1.3858 
B(  8-C , 15-H ) :   0.9598 

-------
TIMINGS
-------

Total SCF time: 0 days 0 hours 0 min 7 sec 

Total time                  ....       7.595 sec
Sum of individual times     ....       6.970 sec  ( 91.8%)

SCF preparation             ....       0.037 sec  (  0.5%)
Fock matrix formation       ....       6.839 sec  ( 90.0%)
  Startup                   ....       0.002 sec  (  0.0% of F)
  Split-RI-J                ....       2.177 sec  ( 31.8% of F)
  XC integration            ....       5.266 sec  ( 77.0% of F)
    XC Preparation          ....       0.000 sec  (  0.0% of XC)
    Basis function eval.    ....       1.612 sec  ( 30.6% of XC)
    Density eval.           ....       0.915 sec  ( 17.4% of XC)
    XC-Functional eval.     ....       0.114 sec  (  2.2% of XC)
    XC-Potential eval.      ....       2.531 sec  ( 48.1% of XC)
Diagonalization             ....       0.000 sec  (  0.0%)
Density matrix formation    ....       0.007 sec  (  0.1%)
Total Energy calculation    ....       0.006 sec  (  0.1%)
Population analysis         ....       0.004 sec  (  0.1%)
Orbital Transformation      ....       0.011 sec  (  0.1%)
Orbital Orthonormalization  ....       0.000 sec  (  0.0%)
DIIS solution               ....       0.055 sec  (  0.7%)
SOSCF solution              ....       0.010 sec  (  0.1%)
Finished LeanSCF after   7.6 sec

Maximum memory used throughout the entire LEANSCF-calculation: 31.5 MB

-------------------------   --------------------
FINAL SINGLE POINT ENERGY      -346.796885640419
-------------------------   --------------------


------------------------------------------------------------------------------
                              ORCA PROPERTY CALCULATIONS
------------------------------------------------------------------------------

GBWName                                 ... job.gbw
Number of atoms                         ...     16
Number of basis functions               ...    296
Max core memory                         ...  16384 MB

Electric properties:
Dipole moment                           ... YES
Quadrupole moment                       ...  NO
Static polarizability (Dipole/Dipole)   ...  NO
Static polarizability (Dipole/Quad.)    ...  NO
Static polarizability (Quad./Quad.)     ...  NO
Static polarizability (Velocity)        ...  NO
Static hyperpolarizability              ...  NO

Atomic electric properties:
Dipole moment                           ...  NO
Quadrupole moment                       ...  NO
Static polarizability                   ...  NO

Choice of electric origin               ... Center of mass
Position of electric origin             ...    -1.852189    -1.768773    -0.000340

General magnetic properties:
Magnetizability                         ...  NO

EPR properties:
g-Tensor (aka g-matrix)                 ...  NO
Zero-Field splitting spin-orbit         ...  NO
Zero-field splitting spin-spin          ...  NO
Hyperfine couplings                     ...  NO (   0 nuclei)
Quadrupole couplings                    ...  NO (   0 nuclei)
Contact density                         ...  NO (   0 nuclei)

NMR properties:
Chemical shifts                         ...  NO (   0 nuclei)
Spin-rotation constants                 ...  NO (   0 nuclei)
Spin-spin couplings                     ...  NO (   0 nuclei,    0 pairs)

Choice of magnetic origin               ... GIAO
Position of magnetic origin             ...     0.000000     0.000000     0.000000

Properties with geometric perturbations:
SCF Hessian                             ...  NO
IR spectrum                             ...  NO
VCD spectrum                            ...  NO
X-ray spectroscopy properties:
SCF XES/XAS/RIXS spectra                ...  NO

SCF SOC stabilization energy            ...  NO
Diagonal Born-Oppenheimer correction    ...  NO

-------------
DIPOLE MOMENT
-------------

Method             : SCF
Type of density    : Electron Density
Multiplicity       :   1
Irrep              :   0
Energy             :  -346.7968856404185090 Eh
Basis              : AO
                                X                 Y                 Z
Electronic contribution:     -2.441076025       1.224275773       0.000124347
Nuclear contribution   :      2.896278376      -1.464147417      -0.000147370
                        -----------------------------------------
Total Dipole Moment    :      0.455202351      -0.239871644      -0.000023023
                        -----------------------------------------
Magnitude (a.u.)       :      0.514536283
Magnitude (Debye)      :      1.307847295



--------------------
Rotational spectrum 
--------------------
 
Rotational constants in cm-1:             0.168176             0.052031             0.040048 
Rotational constants in MHz :          5041.784704          1559.850597          1200.603513 

Dipole components along the rotational axes: 
x,y,z [a.u.] :    -0.341192     0.385143    -0.000003 
x,y,z [Debye]:    -0.867242     0.978956    -0.000007 

 

Dipole moment calculation done in   0.0 sec 

Maximum memory used throughout the entire PROP-calculation: 23.1 MB

--------------------------------
SUGGESTED CITATIONS FOR THIS RUN
--------------------------------

Below you find a list of papers that are relevant to this ORCA run
We neither can nor want to force you to cite these papers, but we appreciate if you do
You receive ORCA, which is the product of decades of hard work by many enthusiastic individuals, for free
The only thing we kindly ask in return is that you cite our papers,
We deeply appreciate it, if you show your appreciation for ORCA by not just citing the generic ORCA reference.

Please note that relegating all ORCA citations to the supporting information does *not* help us.
SI sections are not indexed - citations you put there will not count into any citation statistics
But we need these citations in order to attract the funding resources that allow us to do what we are doing

Therefore, if you are a happy ORCA user, please consider citing a few of the papers listed below in the main body of your paper

In addition to the list printed below, the program has created the file job.bibtex that contains the list in bibtex format
You can import this file easily into all common literature databanks and citation aid programs


List of essential papers. We consider these as the minimum necessary citations

  1. Neese, F.
     Software update: the ORCA program system, version 6.0
     WIRES Comput. Molec. Sci. 2025 15(1), e70019
     doi.org/10.1002/wcms.7019

List of papers to cite with high priority. The work reported in these papers was absolutely
necessary for this run to complete.
Our perspective: the developers of density functionals and basis sets usually get cited in chemistry papers
Good! But without the algorithms to do something with them, the functionals or basis sets would not do anything.
Hence, in our opinion, the algorithm design and method developments papers are equally worthy of getting cited

  1. Neese, F.
     An improvement of the resolution of the identity approximation for the formation of the Coulomb matrix
     J. Comp. Chem. 2003 24(14), 1740-1747
     doi.org/10.1002/jcc.10318
  2. Neese, F.
     The SHARK Integral Generation and Digestion System
     J. Comp. Chem. 2022 44(3), 381
     doi.org/10.1002/jcc.26942

List of suggested additional citations. These are papers that are important in the 'surrounding' of 
of this run, or papers that preceded the highly important papers. If you like your results we are grateful for a citation.

  1. Neese, F.
     The ORCA program system
     WIRES Comput. Molec. Sci. 2012 2(1), 73-78
     doi.org/10.1002/wcms.81
  2. Neese, F.
     Software update: the ORCA program system, version 4.0
     WIRES Comput. Molec. Sci. 2018 8(1), 1-6
     doi.org/10.1002/wcms.1327
  3. Neese, F.; Wennmohs, F.; Becker, U.; Riplinger, C.
     The ORCA quantum chemistry program package
     J. Chem. Phys. 2020 152(22), 224108
     doi.org/10.1063/5.0004608
  4. Neese, F.
     Software update: The ORCA program system—Version 5.0
     WIRES Comput. Molec. Sci. 2022 12(1), e1606
     doi.org/10.1002/wcms.1606

List of optional additional citations

  1. Neese, F.
     Approximate second-order SCF convergence for spin unrestricted wavefunctions
     Chem. Phys. Lett. 2000 325(1-3), 93-98
     doi.org/10.1016/s0009-2614(00)00662-x

Timings for individual modules:

Sum of individual times          ...        8.758 sec (=   0.146 min)
Startup calculation              ...        0.461 sec (=   0.008 min)   5.3 %
SCF iterations                   ...        8.193 sec (=   0.137 min)  93.6 %
Property calculations            ...        0.104 sec (=   0.002 min)   1.2 %
                             ****ORCA TERMINATED NORMALLY****
TOTAL RUN TIME: 0 days 0 hours 0 minutes 8 seconds 836 msec
