
                                 *****************
                                 * O   R   C   A *
                                 *****************

                                            #,                                       
                                            ###                                      
                                            ####                                     
                                            #####                                    
                                            ######                                   
                                           ########,                                 
                                     ,,################,,,,,                         
                               ,,#################################,,                 
                          ,,##########################################,,             
                       ,#########################################, ''#####,          
                    ,#############################################,,   '####,        
                  ,##################################################,,,,####,       
                ,###########''''           ''''###############################       
              ,#####''   ,,,,##########,,,,          '''####'''          '####       
            ,##' ,,,,###########################,,,                        '##       
           ' ,,###''''                  '''############,,,                           
         ,,##''                                '''############,,,,        ,,,,,,###''
      ,#''                                            '''#######################'''  
     '                                                          ''''####''''         
             ,#######,   #######,   ,#######,      ##                                
            ,#'     '#,  ##    ##  ,#'     '#,    #''#        ,####,    ,#,          
            ##       ##  ##   ,#'  ##            #'  '#       #'       ,# #          
            ##       ##  #######   ##           ,######,      #####,      #          
            '#,     ,#'  ##    ##  '#,     ,#' ,#      #,     #,   #      #          
             '#######'   ##     ##  '#######'  #'      '#     '####' #    #          



                #########################################################
                #                        -***-                          #
                #          Department of theory and spectroscopy        #
                #                                                       #
                #                      Frank Neese                      #
                #                                                       #
                #     Directorship, Architecture, Infrastructure        #
                #                    SHARK, DRIVERS                     #
                #        Core code/Algorithms in most modules           #
                #                                                       #
                #        Max Planck Institute fuer Kohlenforschung      #
                #                Kaiser Wilhelm Platz 1                 #
                #                 D-45470 Muelheim/Ruhr                 #
                #                      Germany                          #
                #                                                       #
                #                  All rights reserved                  #
                #                        -***-                          #
                #########################################################


                         Program Version 6.1.0  -  RELEASE   -
                                (GIT: $679e74b7b5$)
                          ($2025-06-10 18:02:51 +0200$)


 With contributions from (in alphabetic order):
[Max-Planck-Institut fuer Kohlenforschung]                               
  Daniel Aravena         : Magnetic Suceptibility                        
  Michael Atanasov       : Ab Initio Ligand Field Theory (pilot matlab implementation)
  Alexander A. Auer      : GIAO ZORA, VPT2 properties, NMR spectrum      
  Ute Becker             : All parallelization in ORCA, NUMFREQ, NUMCALC 
  Giovanni Bistoni       : ED, misc. LED, open-shell LED, HFLD           
  Dmytro Bykov           : pre 5.0 version of the SCF Hessian            
  Marcos Casanova-Páez   : Triplet and SCS-CIS(D). UHF-(DLPNO)-IP/EA/STEOM-CCSD. UHF-CVS-IP/STEOM-CCSD   
  Vijay G. Chilkuri      : MRCI spin determinant printing, contributions to CSF-ICE 
  Pauline Colinet        : FMM embedding                                 
  Dipayan Datta          : RHF DLPNO-CCSD density                        
  Achintya Kumar Dutta   : EOM-CC, STEOM-CC                              
  Nicolas Foglia         : Exact transition moments, OPA infrastructure, MCD improvements    
  Dmitry Ganyushin       : Spin-Orbit,Spin-Spin,Magnetic field MRCI      
  Miquel Garcia-Rates    : C-PCM and meta-GGA Hessian, CCSD/C-PCM, Gaussian charge scheme 
  Tiago L. C. Gouveia    : GS-ROHF, GS-ROCIS                             
  Yang Guo               : DLPNO-NEVPT2, F12-NEVPT2, CIM, IAO-localization        
  Andreas Hansen         : Spin unrestricted coupled pair/coupled cluster methods 
  Ingolf Harden          : AUTO-CI MPn and infrastructure                
  Benjamin Helmich-Paris : MC-RPA, TRAH-(SCF,CASSCF), AVAS, COSX integrals, SCF dyn. polar., MC-PDFT, srDFT 
  Lee Huntington         : MR-EOM, pCC                                   
  Robert Izsak           : Overlap fitted RIJCOSX, COSX-SCS-MP3, EOM     
  Riya Kayal             : Wick's Theorem for AUTO-CI, AUTO-CI UHF-CCSDT 
  Emily Kempfer          : AUTO-CI RHF CISDT and CCSDT, approximate NEVPT4
  Christian Kollmar      : KDIIS, OOCD, Brueckner-CCSD(T), CCSD density, CASPT2, CASPT2-K, improved NEVPT2 
  Axel Koslowski         : Symmetry handling                             
  Simone Kossmann        : meta-GGA functionals, TD-DFT gradient, OOMP2, (MP2 Hessian; deprecated post 5.0) 
  Lucas Lang             : DCDCAS, Hyperfine gauge corrections, ICE-SOC+SSC
  Marvin Lechner         : AUTO-CI (C++ implementation), FIC-MRCC        
  Spencer Leger          : CASSCF response                               
  Dagmar Lenk            : GEPOL surface, SMD, ORCA-2-JSON               
  Dimitrios Liakos       : Extrapolation schemes; Compound Job, Property file
  Dimitrios Manganas     : Further ROCIS development; embedding schemes. LFT, Crystal Embedding 
  Dimitrios Pantazis     : SARC Basis sets                               
  Anastasios Papadopoulos: AUTO-CI, single reference methods and gradients 
  Taras Petrenko         : pre 6.0 DFT Hessian and TD-DFT gradient,  ECA, NRVS 
  Petra Pikulova         : Analytic Raman intensities                    
  Peter Pinski           : DLPNO-MP2, DLPNO-MP2 Gradient                 
  Shashank Vittal Rao    : ES-AILFT, MagRelax                            
  Christoph Reimann      : Effective Core Potentials                     
  Marius Retegan         : Local ZFS, SOC                                
  Christoph Riplinger    : Optimizer, TS searches, QM/MM, DLPNO-CCSD(T), (RO)-DLPNO pert. Triples 
  Michael Roemelt        : Original ROCIS implementation, recursive CI coupling coefficients
  Masaaki Saitow         : Open-shell DLPNO-CCSD energy and density      
  Barbara Sandhoefer     : DKH picture change effects                    
  Yorick L. A. Schmerwitz: GMF and freeze-and-release deltaSCF, NEB S-IDPP initial path                    
  Kantharuban Sivalingam : CASSCF convergence/infrastructure, NEVPT2, NEVPT3, NEVPT4(SD), FIC-MRCI and CEPA variants
  Bernardo de Souza      : ESD, SOC TD-DFT                               
  Georgi L. Stoychev     : AutoAux, RI-MP2 NMR, DLPNO-MP2 response, X2C  
  Van Anh Tran           : RI-MP2 g-tensors                              
  Willem Van den Heuvel  : Paramagnetic NMR                              
  Zikuan Wang            : NOTCH, Electric field optimization            
  Frank Wennmohs         : Technical directorship and infrastructure     
  Hang Xu                : AUTO-CI-Response properties                   
                                                                         
[FACCTs GmbH]                                                            
  Markus Bursch, Nicolas Foglia, Miquel Garcia-Rates, Ingolf Harden, Hagen Neugebauer, Anastasios Papadopoulos, 
  Christoph Riplinger, Bernardo de Souza, Georgi L. Stoychev                                                    
                                                                 
  APM, various basis sets, CI-OPT, improved COSX, DLPNO-Multilevel,           
  DOCKER, DRACO, updates on ESD, Fragmentator, GOAT, IRC, LR-CPCM, L-BFGS, MBIS, meta-GGA TD-DFT gradient, ML-optimized integration grids, 
  MM, NACMEs, nearIR, NEB, NEB-TS, NL-DFT gradient (VV10), 2- and 3-layer-ONIOM, interface openCOSMO-RS, QMMM,   
  Crystal-QMMM, RESP, rigid body optimization, SF, symmetry and pop. for TD-DFT, various functionals, SOLVATOR                                   
                                                                         
[Other institutions]                                                     
  V. Asgeirsson          : NEB                                           
  Christoph Bannwarth    : sTDA-DFT, sTD-DFT, PBEh-3c, B97-3c, D3        
  Giovanni Bistoni       : ETS/NOCV, ADLD/ADEX, COVALED                  
  Martin Brehm           : Molecular dynamics                            
  Ronald Cardenas        : ETS/NOCV                                      
  Martina Colucci        : COVALED                                       
  Sebastian Ehlert       : rSCAN, r2SCAN, r2SCAN-3c, D4, dhf basis sets  
  Marvin Friede          : D4 for Fr, Ra, Ac-Lr                          
  Lars Goerigk           : TD-DFT with DH, B97 family of functionals     
  Stefan Grimme          : VdW corrections, initial TS optimization, DFT functionals, gCP, sTDA/sTD-DF 
  Waldemar Hujo          : DFT-NL                                        
  H. Jonsson             : NEB                                           
  Holger Kruse           : gCP                                           
  Marcel Mueller         : wB97X-3c, vDZP basis set                      
  Hagen Neugebauer       : wr2SCAN, Native XTB                           
  Gianluca Regni         : ADLD/ADEX                                     
  Tobias Risthaus        : pre 6.0 range-separated hybrid DFT and stability analysis
  Lukas Wittmann         : regularized MP2, r2SCAN double-hybrids, wr2SCAN        
                                                                         
We gratefully acknowledge several colleagues who have allowed us to      
interface, adapt or use parts of their codes:                            
  Ed Valeev, F. Pavosevic, A. Kumar             : LibInt (2-el integral package), F12 methods 
  Garnet Chan, S. Sharma, J. Yang, R. Olivares  : DMRG                   
  Ulf Ekstrom                                   : XCFun DFT Library      
  Mihaly Kallay                                 : mrcc  (arbitrary order and MRCC methods)
  Frank Weinhold                                : gennbo (NPA and NBO analysis)           
  Simon Mueller                                 : openCOSMO-RS                            
  Christopher J. Cramer and Donald G. Truhlar   : smd solvation model                     
  S Lehtola, MJT Oliveira, MAL Marques          : LibXC Library                           
  Liviu Ungur et al                             : ANISO software                          


 Your calculation uses the libint2 library for the computation of 2-el integrals
 For citations please refer to: http://libint.valeyev.net

 Your ORCA version has been built with support for libXC version: 7.0.0
 For citations please refer to: https://libxc.gitlab.io

 This ORCA versions uses:
   CBLAS   interface :  Fast vector & matrix operations
   LAPACKE interface :  Fast linear algebra routines
   SCALAPACK package :  Parallel linear algebra routines
   Shared memory     :  Shared parallel matrices


  ***********************************
  * Starting time: Thu Jul 10 18:12:51 2025
  * Host name:     MacBook-Air-3.local
  * Process ID:    1998
  * Working dir.:  /Users/blenl/Desktop/Folders/Projects/DFT2/ewithdrawing/cyano/freq
  ***********************************

NOTE: MaxCore=16384 MB was set to SCF,MP2,MDCI,CIPSI,MRCI,RASCI and CIS
      => If you want to overwrite this, your respective input block should be placed after the MaxCore statement
Warning: RI is on but no J-basis has been assigned. Assigning Def2/J (nothing to worry about!)
================================================================================

----- Orbital basis set information -----
Your calculation utilizes the basis: def2-TZVP
   F. Weigend and R. Ahlrichs, Phys. Chem. Chem. Phys. 7, 3297 (2005).

----- AuxJ basis set information -----
Your calculation utilizes the auxiliary basis: def2/J
   H-Rn: F. Weigend, Phys. Chem. Chem. Phys. 8, 1057 (2006).
   Fr-Lr: K. Eichkorn, F. Weigend, O. Treutler, R. Ahlrichs; Theor. Chem. Acc. 97, 119 (1997).

================================================================================
                                        WARNINGS
                       Please study these warnings very carefully!
================================================================================


WARNING: Geometry Optimization
  ===> : Switching off AutoStart
         For restart on a previous wavefunction, please use MOREAD

================================================================================
                                       INPUT FILE
================================================================================
NAME = job.inp
|  1> # avogadro generated ORCA file
|  2> # C7H5N | Frequencies | revPBE/def2-TZVP
|  3> # 
|  4> ! Opt Freq revPBE def2-TZVP 
|  5> 
|  6> %maxcore 16384
|  7> 
|  8> %pal
|  9>    nprocs 1
| 10> end
| 11> 
| 12> * xyz 0 1
| 13>    C     -3.766730    2.333312   -0.000053
| 14>    C     -3.771509    0.935996   -0.000070
| 15>    C     -2.548013    0.231593   -0.000095
| 16>    H     -0.392042    2.883921   -0.000090
| 17>    C     -2.553414    3.035913   -0.000060
| 18>    C     -2.545225   -1.204036   -0.000112
| 19>    H     -4.710898    0.381596   -0.000065
| 20>    N     -2.542657   -2.373155   -0.000127
| 21>    C     -1.337391    2.338000   -0.000085
| 22>    H     -2.555522    4.127742   -0.000047
| 23>    H     -4.714174    2.875593   -0.000034
| 24>    C     -1.327228    0.940715   -0.000102
| 25>    H     -0.385724    0.389917   -0.000121
| 26> *
| 27> 
| 28> 
| 29> 
| 30>                          ****END OF INPUT****
================================================================================

                       *****************************
                       * Geometry Optimization Run *
                       *****************************

Geometry optimization settings:
Update method            Update   .... BFGS
Choice of coordinates    CoordSys .... (2022) Redundant Internals
Initial Hessian          InHess   .... Almloef's Model
Max. no of cycles        MaxIter  .... 50

Convergence Tolerances:
Energy Change            TolE     ....  5.0000e-06 Eh
Max. Gradient            TolMAXG  ....  3.0000e-04 Eh/bohr
RMS Gradient             TolRMSG  ....  1.0000e-04 Eh/bohr
Max. Displacement        TolMAXD  ....  4.0000e-03 bohr
RMS Displacement         TolRMSD  ....  2.0000e-03 bohr
Strict Convergence                .... False

------------------------------------------------------------------------------
                        ORCA OPTIMIZATION COORDINATE SETUP
------------------------------------------------------------------------------

The optimization will be done in redundant internal coordinates (2022)
Making redundant internal coordinates   ...  (2022 redundants) done
Evaluating the initial hessian          ...  (Almloef) done
Evaluating the coordinates              ...  done
Calculating the B-matrix                .... done
Calculating the G-matrix                .... done
The number of degrees of freedom        ....   57

    -----------------------------------------------------------------
                    Redundant Internal Coordinates


    -----------------------------------------------------------------
         Definition                    Initial Value    Approx d2E/dq
    -----------------------------------------------------------------
      1. B(C   1,C   0)                  1.3973         0.608210   
      2. B(C   2,C   1)                  1.4118         0.576751   
      3. B(C   4,C   0)                  1.4021         0.597711   
      4. B(C   5,C   2)                  1.4356         0.528367   
      5. B(H   6,C   1)                  1.0908         0.359064   
      6. B(N   7,C   5)                  1.1691         1.259716   
      7. B(C   8,H   3)                  1.0917         0.357915   
      8. B(C   8,C   4)                  1.4021         0.597702   
      9. B(H   9,C   4)                  1.0918         0.357686   
     10. B(H  10,C   0)                  1.0917         0.357912   
     11. B(C  11,C   8)                  1.3973         0.608215   
     12. B(C  11,C   2)                  1.4118         0.576718   
     13. B(H  12,C  11)                  1.0908         0.359065   
     14. A(C   1,C   0,H  10)          119.5892         0.351402   
     15. A(C   4,C   0,H  10)          120.1408         0.350370   
     16. A(C   1,C   0,C   4)          120.2700         0.429734   
     17. A(C   2,C   1,H   6)          119.5218         0.348456   
     18. A(C   0,C   1,C   2)          119.7344         0.426993   
     19. A(C   0,C   1,H   6)          120.7438         0.351593   
     20. A(C   5,C   2,C  11)          120.0399         0.416392   
     21. A(C   1,C   2,C   5)          120.0416         0.416396   
     22. A(C   1,C   2,C  11)          119.9185         0.422950   
     23. A(C   8,C   4,H   9)          119.9635         0.350332   
     24. A(C   0,C   4,H   9)          119.9634         0.350333   
     25. A(C   0,C   4,C   8)          120.0731         0.428393   
     26. L(C   2,C   5,N   7,C  11, 2) 180.0001         0.476506   
     27. L(C   2,C   5,N   7,C  11, 1) 179.9854         0.476506   
     28. A(H   3,C   8,C   4)          120.1415         0.350370   
     29. A(C   4,C   8,C  11)          120.2696         0.429734   
     30. A(H   3,C   8,C  11)          119.5889         0.351403   
     31. A(C   8,C  11,H  12)          120.7452         0.351594   
     32. A(C   2,C  11,H  12)          119.5204         0.348452   
     33. A(C   2,C  11,C   8)          119.7345         0.426989   
     34. D(H   6,C   1,C   0,C   4)   -180.0000         0.025540   
     35. D(H   6,C   1,C   0,H  10)      0.0000         0.025540   
     36. D(C   2,C   1,C   0,H  10)    180.0000         0.025540   
     37. D(C   2,C   1,C   0,C   4)     -0.0000         0.025540   
     38. D(C  11,C   2,C   1,C   0)      0.0000         0.022842   
     39. D(C   5,C   2,C   1,C   0)    180.0000         0.022842   
     40. D(C   5,C   2,C   1,H   6)     -0.0001         0.022842   
     41. D(C  11,C   2,C   1,H   6)    180.0000         0.022842   
     42. D(H   9,C   4,C   0,H  10)     -0.0000         0.024618   
     43. D(H   9,C   4,C   0,C   1)    180.0000         0.024618   
     44. D(C   8,C   4,C   0,H  10)   -180.0000         0.024618   
     45. D(C   8,C   4,C   0,C   1)      0.0000         0.024618   
     46. D(C  11,C   8,C   4,C   0)     -0.0001         0.024618   
     47. D(H   3,C   8,C   4,H   9)      0.0001         0.024618   
     48. D(H   3,C   8,C   4,C   0)   -180.0000         0.024618   
     49. D(C  11,C   8,C   4,H   9)   -180.0000         0.024618   
     50. D(H  12,C  11,C   8,C   4)   -180.0000         0.025540   
     51. D(C   2,C  11,C   8,C   4)      0.0001         0.025540   
     52. D(C   2,C  11,C   8,H   3)    180.0000         0.025540   
     53. D(H  12,C  11,C   2,C   5)      0.0000         0.022839   
     54. D(H  12,C  11,C   2,C   1)    180.0000         0.022839   
     55. D(H  12,C  11,C   8,H   3)     -0.0000         0.025540   
     56. D(C   8,C  11,C   2,C   5)   -180.0000         0.022839   
     57. D(C   8,C  11,C   2,C   1)     -0.0000         0.022839   
    -----------------------------------------------------------------

Number of atoms                         .... 13
Number of degrees of freedom            .... 57


         *************************************************************
         *                GEOMETRY OPTIMIZATION CYCLE   1            *
         *************************************************************
---------------------------------
CARTESIAN COORDINATES (ANGSTROEM)
---------------------------------
  C     -3.766730    2.333312   -0.000053
  C     -3.771509    0.935996   -0.000070
  C     -2.548013    0.231593   -0.000095
  H     -0.392042    2.883921   -0.000090
  C     -2.553414    3.035913   -0.000060
  C     -2.545225   -1.204036   -0.000112
  H     -4.710898    0.381596   -0.000065
  N     -2.542657   -2.373155   -0.000127
  C     -1.337391    2.338000   -0.000085
  H     -2.555522    4.127742   -0.000047
  H     -4.714174    2.875593   -0.000034
  C     -1.327228    0.940715   -0.000102
  H     -0.385724    0.389917   -0.000121

----------------------------
CARTESIAN COORDINATES (A.U.)
----------------------------
  NO LB      ZA    FRAG     MASS         X           Y           Z
   0 C     6.0000    0    12.011   -7.118088    4.409321   -0.000100
   1 C     6.0000    0    12.011   -7.127119    1.768776   -0.000132
   2 C     6.0000    0    12.011   -4.815047    0.437647   -0.000180
   3 H     1.0000    0     1.008   -0.740852    5.449821   -0.000170
   4 C     6.0000    0    12.011   -4.825253    5.737044   -0.000113
   5 C     6.0000    0    12.011   -4.809778   -2.275298   -0.000212
   6 H     1.0000    0     1.008   -8.902307    0.721112   -0.000123
   7 N     7.0000    0    14.007   -4.804925   -4.484613   -0.000240
   8 C     6.0000    0    12.011   -2.527303    4.418180   -0.000161
   9 H     1.0000    0     1.008   -4.829237    7.800302   -0.000089
  10 H     1.0000    0     1.008   -8.908498    5.434083   -0.000064
  11 C     6.0000    0    12.011   -2.508097    1.777694   -0.000193
  12 H     1.0000    0     1.008   -0.728913    0.736836   -0.000229

--------------------------------
INTERNAL COORDINATES (ANGSTROEM)
--------------------------------
 C      0   0   0     0.000000000000     0.00000000     0.00000000
 C      1   0   0     1.397324172476     0.00000000     0.00000000
 C      2   1   0     1.411781161884   119.73435468     0.00000000
 H      3   2   1     3.418048386499    99.17596389     0.00000000
 C      1   2   3     1.402064150139   120.27001896     0.00000000
 C      3   2   1     1.435631707254   120.04158144   179.99997378
 H      2   1   3     1.090784604469   120.74382356   180.00005010
 N      6   3   2     1.169121820432   179.98541704   179.77821804
 C      4   3   2     1.091656754693    20.88810976     0.00000000
 H      5   1   2     1.091831035039   119.96343968   179.99997832
 H      1   2   3     1.091658745423   119.58922638   179.99998064
 C      9   4   3     1.397321959350   119.58888626     0.00000000
 H     12   9   4     1.090783305327   120.74518473     0.00000000

---------------------------
INTERNAL COORDINATES (A.U.)
---------------------------
 C      0   0   0     0.000000000000     0.00000000     0.00000000
 C      1   0   0     2.640560006288     0.00000000     0.00000000
 C      2   1   0     2.667879756990   119.73435468     0.00000000
 H      3   2   1     6.459175362975    99.17596389     0.00000000
 C      1   2   3     2.649517265952   120.27001896     0.00000000
 C      3   2   1     2.712950755885   120.04158144   179.99997378
 H      2   1   3     2.061284173544   120.74382356   180.00005010
 N      6   3   2     2.209320057808   179.98541704   179.77821804
 C      4   3   2     2.062932298615    20.88810976     0.00000000
 H      5   1   2     2.063261640739   119.96343968   179.99997832
 H      1   2   3     2.062936060549   119.58922638   179.99998064
 C      9   4   3     2.640555824087   119.58888626     0.00000000
 H     12   9   4     2.061281718522   120.74518473     0.00000000

---------------------
BASIS SET INFORMATION
---------------------
There are 3 groups of distinct atoms

 Group   1 Type C   : 11s6p2d1f contracted to 5s3p2d1f pattern {62111/411/11/1}
 Group   2 Type H   : 5s1p contracted to 3s1p pattern {311/1}
 Group   3 Type N   : 11s6p2d1f contracted to 5s3p2d1f pattern {62111/411/11/1}

Atom   0C    basis set group =>   1
Atom   1C    basis set group =>   1
Atom   2C    basis set group =>   1
Atom   3H    basis set group =>   2
Atom   4C    basis set group =>   1
Atom   5C    basis set group =>   1
Atom   6H    basis set group =>   2
Atom   7N    basis set group =>   3
Atom   8C    basis set group =>   1
Atom   9H    basis set group =>   2
Atom  10H    basis set group =>   2
Atom  11C    basis set group =>   1
Atom  12H    basis set group =>   2
---------------------------------
AUXILIARY/J BASIS SET INFORMATION
---------------------------------
There are 3 groups of distinct atoms

 Group   1 Type C   : 12s5p4d2f1g contracted to 6s4p3d1f1g pattern {711111/2111/211/2/1}
 Group   2 Type H   : 5s2p1d contracted to 3s1p1d pattern {311/2/1}
 Group   3 Type N   : 12s5p4d2f1g contracted to 6s4p3d1f1g pattern {711111/2111/211/2/1}

Atom   0C    basis set group =>   1
Atom   1C    basis set group =>   1
Atom   2C    basis set group =>   1
Atom   3H    basis set group =>   2
Atom   4C    basis set group =>   1
Atom   5C    basis set group =>   1
Atom   6H    basis set group =>   2
Atom   7N    basis set group =>   3
Atom   8C    basis set group =>   1
Atom   9H    basis set group =>   2
Atom  10H    basis set group =>   2
Atom  11C    basis set group =>   1
Atom  12H    basis set group =>   2
------------------------------------------------------------------------------
                             ORCA STARTUP CALCULATIONS
                           -- RI-GTO INTEGRALS CHOSEN --
------------------------------------------------------------------------------
------------------------------------------------------------------------------
                   ___                                                        
                  /   \      - P O W E R E D   B Y -                         
                 /     \                                                     
                 |  |  |   _    _      __       _____    __    __             
                 |  |  |  | |  | |    /  \     |  _  \  |  |  /  |          
                  \  \/   | |  | |   /    \    | | | |  |  | /  /          
                 / \  \   | |__| |  /  /\  \   | |_| |  |  |/  /          
                |  |  |   |  __  | /  /__\  \  |    /   |      \           
                |  |  |   | |  | | |   __   |  |    \   |  |\   \          
                \     /   | |  | | |  |  |  |  | |\  \  |  | \   \       
                 \___/    |_|  |_| |__|  |__|  |_| \__\ |__|  \__/        
                                                                              
                      - O R C A' S   B I G   F R I E N D -                    
                                      &                                       
                       - I N T E G R A L  F E E D E R -                       
                                                                              
 v1 FN, 2020, v2 2021, v3 2022-2024                                           
------------------------------------------------------------------------------


----------------------
SHARK INTEGRAL PACKAGE
----------------------

Number of atoms                             ...     13
Number of basis functions                   ...    278
Number of shells                            ...    108
Maximum angular momentum                    ...      3
Integral batch strategy                     ... SHARK/LIBINT Hybrid
RI-J (if used) integral strategy            ... SPLIT-RIJ (Revised 2003 algorithm where possible)
Printlevel                                  ...      1
Contraction scheme used                     ... SEGMENTED contraction
Prescreening option                         ... SCHWARTZ
   Thresh                                   ... 2.500e-11
   Tcut                                     ... 2.500e-12
   Tpresel                                  ... 2.500e-12 
Coulomb Range Separation                    ... NOT USED
Exchange Range Separation                   ... NOT USED
Multipole approximations                    ... NOT USED
Finite Nucleus Model                        ... NOT USED
CABS basis                                  ... NOT available
Auxiliary Coulomb fitting basis             ... AVAILABLE
   # of basis functions in Aux-J            ...    447
   # of shells in Aux-J                     ...    145
   Maximum angular momentum in Aux-J        ...      4
Auxiliary J/K fitting basis                 ... NOT available
Auxiliary Correlation fitting basis         ... NOT available
Auxiliary 'external' fitting basis          ... NOT available

Checking pre-screening integrals            ... done (  0.0 sec) Dimension = 108
   => SHARK Basis and OBASIS are compatible. Storing Pre-screening
Shell pair information
Shell pair cut-off parameter TPreSel        ...   2.5e-12
Total number of shell pairs                 ...      5886
Shell pairs after pre-screening             ...      5424
Total number of primitive shell pairs       ...     18336
Primitive shell pairs kept                  ...     12809
          la=0 lb=0:   1347 shell pairs
          la=1 lb=0:   1484 shell pairs
          la=1 lb=1:    421 shell pairs
          la=2 lb=0:    814 shell pairs
          la=2 lb=1:    449 shell pairs
          la=2 lb=2:    131 shell pairs
          la=3 lb=0:    401 shell pairs
          la=3 lb=1:    222 shell pairs
          la=3 lb=2:    122 shell pairs
          la=3 lb=3:     33 shell pairs

Checking whether 4 symmetric matrices of dimension 278 fit in memory
:Max Core in MB      =  16384.00
 MB in use           =      8.87
 MB left             =  16375.13
 MB needed           =      1.18
 Data fit in memory  = YES
Calculating RI/J V-Matrix + Cholesky decomp.... done (  0.0 sec)
Calculating Nuclear repulsion               ... done (  0.0 sec) ENN=    298.015518834055 Eh

Diagonalization of the overlap matrix:
Smallest eigenvalue                        ... 9.762e-06
Time for diagonalization                   ...    0.004 sec
Threshold for overlap eigenvalues          ... 1.000e-07
Number of eigenvalues below threshold      ... 0
Time for construction of square roots      ...    0.001 sec
Total time needed                          ...    0.005 sec

-------------------
DFT GRID GENERATION
-------------------

General Integration Accuracy     IntAcc      ... 4.388
Radial Grid Type                 RadialGrid  ... OptM3 with GC (2021)
Angular Grid (max. ang.)         AngularGrid ... 4 (Lebedev-302)
Angular grid pruning method      GridPruning ... 4 (adaptive)
Weight generation scheme         WeightScheme... mBecke (2022)
Basis function cutoff            BFCut       ... 1.0000e-11
Integration weight cutoff        WCut        ... 1.0000e-14
Partially contracted basis set               ... off
Rotationally invariant grid construction     ... off
Angular grids for H and He will be reduced by one unit

Total number of grid points                  ...    64342
Total number of batches                      ...     1011
Average number of points per batch           ...       63
Average number of grid points per atom       ...     4949
Grids setup in   0.3 sec
Initializing property integral containers    ... done (  0.0 sec)

SHARK setup successfully completed in   0.3 seconds

Maximum memory used throughout the entire STARTUP-calculation: 38.1 MB
-------------------------------------------------------------------------------
                                 ORCA GUESS
                   Start orbitals & Density for SCF / CASSCF
-------------------------------------------------------------------------------

------------
SCF SETTINGS
------------
Hamiltonian:
 Density Functional     Method          .... DFT(GTOs)
 Exchange Functional    Exchange        .... PBE
   PBE kappa parameter   XKappa         ....  1.245000
   PBE mue parameter    XMuePBE         ....  0.219520
 Correlation Functional Correlation     .... PBE
   PBE beta parameter  CBetaPBE         ....  0.066725
 LDA part of GGA corr.  LDAOpt          .... PW91-LDA
 Gradients option       PostSCFGGA      .... off
   NL short-range parameter             ....  3.700000
 RI-approximation to the Coulomb term is turned on
   Number of AuxJ basis functions       .... 447


General Settings:
 Integral files         IntName         .... job
 Hartree-Fock type      HFTyp           .... RHF
 Total Charge           Charge          ....    0
 Multiplicity           Mult            ....    1
 Number of Electrons    NEL             ....   54
 Basis Dimension        Dim             ....  278
 Nuclear Repulsion      ENuc            ....    298.0155188341 Eh

Convergence Acceleration:
 AO-DIIS                CNVDIIS         .... on
   Start iteration      DIISMaxIt       ....    12
   Startup error        DIISStart       ....  0.200000
   # of expansion vecs  DIISMaxEq       ....     5
   Bias factor          DIISBfac        ....   1.050
   Max. coefficient     DIISMaxC        ....  10.000
 MO-DIIS                CNVKDIIS        .... off
 Trust-Rad. Augm. Hess. CNVTRAH         .... auto
   Auto Start mean grad. ratio tolernc. ....  1.125000
   Auto Start start iteration           ....    50
   Auto Start num. interpolation iter.  ....    10
   Max. Number of Micro iterations      ....    24
   Max. Number of Macro iterations      .... Maxiter - #DIIS iter
   Number of Davidson start vectors     ....     2
   Converg. threshold    (grad. norm)   ....   1.000e-05
   Grad. Scal. Fac. for Micro threshold ....   0.100
   Minimum threshold for Micro iter.    ....   1.000e-02
   NR start threshold (gradient norm)   ....   1.000e-04
   Initial trust radius                 ....   0.400
   Minimum AH scaling param. (alpha)    ....   1.000
   Maximum AH scaling param. (alpha)    .... 1000.000
   Quad. conv. algorithm                .... NR
   White noise on init. David. guess    .... on
   Maximum white noise                  ....   0.010
   Pseudo random numbers                .... off
   Inactive MOs                         .... canonical
   Orbital update algorithm             .... Taylor
   Preconditioner                       .... Diag
   Full preconditioner red. dimension   ....   250
 SOSCF                 CNVSOSCF           .... on
   Start iteration     SOSCFMaxIt         ....   150
   Startup grad/error  SOSCFStart         ....  0.003300
   Hessian update      SOSCFHessUp        .... L-BFGS
   Autom. constraints  SOSCFAutoConstrain .... off
 Level Shifting         CNVShift        .... on
   Level shift para.    LevelShift      ....    0.2500
   Turn off err/grad.   ShiftErr        ....    0.0010
 Zerner damping         CNVZerner       .... off
 Static damping         CNVDamp         .... on
   Fraction old density DampFac         ....    0.7000
   Max. Damping (<1)    DampMax         ....    0.9800
   Min. Damping (>=0)   DampMin         ....    0.0000
   Turn off err/grad.   DampErr         ....    0.1000

SCF Procedure:
 Maximum # iterations   MaxIter         ....   125
 SCF integral mode      SCFMode         .... Direct
   Integral package                     .... SHARK and LIBINT hybrid scheme
 Reset frequency        DirectResetFreq ....    20
 Integral Threshold     Thresh          ....  2.500e-11 Eh
 Primitive CutOff       TCut            ....  2.500e-12 Eh

Convergence Tolerance:
 Convergence Check Mode ConvCheckMode   .... Total+1el-Energy
 Convergence forced     ConvForced      .... 0
 Energy Change          TolE            ....  1.000e-08 Eh
 1-El. energy change                    ....  1.000e-05 Eh
 Orbital Gradient       TolG            ....  1.000e-05
 Orbital Rotation angle TolX            ....  1.000e-05
 DIIS Error             TolErr          ....  5.000e-07

------------------------------
INITIAL GUESS: MODEL POTENTIAL
------------------------------
Loading Hartree-Fock densities                     ... done
Calculating cut-offs                               ... done
Initializing the effective Hamiltonian             ... done
Setting up the integral package (SHARK)            ... done
Starting the Coulomb interaction                   ... done (   0.1 sec)
Making the grid                                    ... done (   0.1 sec)
Mapping shells                                     ... done
Starting the XC term evaluation                    ... done (   0.2 sec)
  promolecular density results
     # of electrons  =     53.999092036
     EX              =    -44.011389228
     EC              =     -1.765110592
     EX+EC           =    -45.776499820
Transforming the Hamiltonian                       ... done (   0.0 sec)
Diagonalizing the Hamiltonian                      ... done (   0.0 sec)
Back transforming the eigenvectors                 ... done (   0.0 sec)
Now organizing SCF variables                       ... done
                      ------------------
                      INITIAL GUESS DONE (   0.3 sec)
                      ------------------
             **** ENERGY FILE WAS UPDATED (job.en.tmp) ****
Finished Guess after   0.4 sec
Maximum memory used throughout the entire GUESS-calculation: 23.4 MB

-------------------------------------------------------------------------------------------
                                      ORCA LEAN-SCF
                              memory conserving SCF solver
-------------------------------------------------------------------------------------------

----------------------------------------D-I-I-S--------------------------------------------
Iteration    Energy (Eh)           Delta-E    RMSDP     MaxDP     DIISErr   Damp  Time(sec)
-------------------------------------------------------------------------------------------
               ***  Starting incremental Fock matrix formation  ***
    1    -324.3586684765326709     0.00e+00  2.56e-03  1.22e-01  2.64e-01  0.700   0.7
    2    -324.4414052630817196    -8.27e-02  1.90e-03  9.71e-02  6.78e-02  0.700   0.7
                               ***Turning on AO-DIIS***
    3    -324.4655932225144852    -2.42e-02  6.07e-04  2.31e-02  4.64e-02  0.700   0.7
    4    -324.4833482649487451    -1.78e-02  9.88e-04  5.06e-02  2.87e-02  0.000   0.7
    5    -324.5225492836342482    -3.92e-02  4.96e-04  2.65e-02  8.71e-03  0.000   0.7
                              *** Initializing SOSCF ***
---------------------------------------S-O-S-C-F--------------------------------------
Iteration    Energy (Eh)           Delta-E    RMSDP     MaxDP     MaxGrad    Time(sec)
--------------------------------------------------------------------------------------
    6    -324.5230141572961884    -4.65e-04  1.34e-04  6.41e-03  2.10e-03     0.6
               *** Restarting incremental Fock matrix formation ***
    7    -324.5230369538884361    -2.28e-05  1.14e-04  5.63e-03  4.21e-04     0.7
    8    -324.5230251345739134     1.18e-05  3.87e-05  1.92e-03  1.41e-03     0.6
    9    -324.5230393644650349    -1.42e-05  2.64e-05  7.95e-04  2.66e-04     0.6
   10    -324.5230360104691272     3.35e-06  1.33e-05  3.09e-04  4.54e-04     0.6
   11    -324.5230400106523803    -4.00e-06  1.10e-05  4.76e-04  7.07e-05     0.6
   12    -324.5230397232288624     2.87e-07  6.20e-06  2.62e-04  9.60e-05     0.6
   13    -324.5230401327672780    -4.10e-07  1.73e-06  6.88e-05  8.88e-06     0.6
   14    -324.5230401317952555     9.72e-10  7.83e-07  2.76e-05  1.23e-05     0.5
                 **** Energy Check signals convergence ****

               *****************************************************
               *                     SUCCESS                       *
               *           SCF CONVERGED AFTER  14 CYCLES          *
               *****************************************************

             **** ENERGY FILE WAS UPDATED (job.en.tmp) ****

----------------
TOTAL SCF ENERGY
----------------

Total Energy       :       -324.52304013405410 Eh           -8830.72087 eV

Components:
Nuclear Repulsion  :        298.01551883405489 Eh            8109.41454 eV
Electronic Energy  :       -622.53855896810899 Eh          -16940.13541 eV
One Electron Energy:      -1026.53639928946018 Eh          -27933.47554 eV
Two Electron Energy:        403.99784032135119 Eh           10993.34013 eV

Virial components:
Potential Energy   :       -647.57208642763317 Eh          -17621.33232 eV
Kinetic Energy     :        323.04904629357901 Eh            8790.61146 eV
Virial Ratio       :          2.00456275558584

DFT components:
N(Alpha)           :       27.000017901167 electrons
N(Beta)            :       27.000017901167 electrons
N(Total)           :       54.000035802335 electrons
E(X)               :      -44.834753939772 Eh       
E(C)               :       -1.773242416992 Eh       
E(XC)              :      -46.607996356764 Eh       

---------------
SCF CONVERGENCE
---------------

  Last Energy change         ...   -9.7202e-10  Tolerance :   1.0000e-08
  Last MAX-Density change    ...    2.7585e-05  Tolerance :   1.0000e-07
  Last RMS-Density change    ...    7.8259e-07  Tolerance :   5.0000e-09
  Last DIIS Error            ...    2.0985e-03  Tolerance :   5.0000e-07
  Last Orbital Gradient      ...    1.2333e-05  Tolerance :   1.0000e-05
  Last Orbital Rotation      ...    2.0626e-05  Tolerance :   1.0000e-05


----------------
ORBITAL ENERGIES
----------------

  NO   OCC          E(Eh)            E(eV) 
   0   2.0000     -13.994270      -380.8034 
   1   2.0000      -9.953850      -270.8580 
   2   2.0000      -9.932544      -270.2783 
   3   2.0000      -9.931163      -270.2407 
   4   2.0000      -9.931149      -270.2403 
   5   2.0000      -9.927007      -270.1276 
   6   2.0000      -9.925605      -270.0894 
   7   2.0000      -9.925556      -270.0881 
   8   2.0000      -0.828914       -22.5559 
   9   2.0000      -0.803481       -21.8638 
  10   2.0000      -0.717475       -19.5235 
  11   2.0000      -0.703968       -19.1559 
  12   2.0000      -0.596568       -16.2334 
  13   2.0000      -0.573347       -15.6016 
  14   2.0000      -0.514549       -14.0016 
  15   2.0000      -0.458144       -12.4667 
  16   2.0000      -0.433489       -11.7958 
  17   2.0000      -0.412710       -11.2304 
  18   2.0000      -0.399709       -10.8766 
  19   2.0000      -0.369313       -10.0495 
  20   2.0000      -0.342608        -9.3228 
  21   2.0000      -0.332927        -9.0594 
  22   2.0000      -0.316030        -8.5996 
  23   2.0000      -0.310953        -8.4615 
  24   2.0000      -0.296356        -8.0643 
  25   2.0000      -0.256393        -6.9768 
  26   2.0000      -0.246753        -6.7145 
  27   0.0000      -0.090132        -2.4526 
  28   0.0000      -0.067100        -1.8259 
  29   0.0000      -0.009275        -0.2524 
  30   0.0000       0.008907         0.2424 
  31   0.0000       0.025075         0.6823 
  32   0.0000       0.045089         1.2269 
  33   0.0000       0.046591         1.2678 
  34   0.0000       0.070648         1.9224 
  35   0.0000       0.084367         2.2957 
  36   0.0000       0.094106         2.5608 
  37   0.0000       0.098154         2.6709 
*Only the first 10 virtual orbitals were printed.

                    ********************************
                    * MULLIKEN POPULATION ANALYSIS *
                    ********************************

-----------------------
MULLIKEN ATOMIC CHARGES
-----------------------
   0 C :   -0.058004
   1 C :   -0.216994
   2 C :    0.350706
   3 H :    0.100015
   4 C :   -0.083653
   5 C :   -0.298342
   6 H :    0.110474
   7 N :    0.060140
   8 C :   -0.058025
   9 H :    0.100169
  10 H :    0.100014
  11 C :   -0.216976
  12 H :    0.110477
Sum of atomic charges:    0.0000000

--------------------------------
MULLIKEN REDUCED ORBITAL CHARGES
--------------------------------
  0 C s       :     3.149627  s :     3.149627
      pz      :     0.955824  p :     2.812976
      px      :     0.932688
      py      :     0.924464
      dz2     :     0.004593  d :     0.088432
      dxz     :     0.008781
      dyz     :     0.016957
      dx2y2   :     0.024636
      dxy     :     0.033464
      f0      :     0.001499  f :     0.006970
      f+1     :     0.000600
      f-1     :     0.000546
      f+2     :     0.000870
      f-2     :     0.000392
      f+3     :     0.002227
      f-3     :     0.000835

  1 C s       :     3.267276  s :     3.267276
      pz      :     0.952018  p :     2.852311
      px      :     0.956181
      py      :     0.944111
      dz2     :     0.004770  d :     0.090442
      dxz     :     0.009196
      dyz     :     0.018145
      dx2y2   :     0.023615
      dxy     :     0.034717
      f0      :     0.001454  f :     0.006965
      f+1     :     0.000619
      f-1     :     0.000547
      f+2     :     0.000847
      f-2     :     0.000452
      f+3     :     0.002165
      f-3     :     0.000880

  2 C s       :     3.112096  s :     3.112096
      pz      :     0.970696  p :     2.414243
      px      :     0.788205
      py      :     0.655342
      dz2     :     0.006605  d :     0.114322
      dxz     :     0.023399
      dyz     :     0.017044
      dx2y2   :     0.030829
      dxy     :     0.036445
      f0      :     0.001683  f :     0.008634
      f+1     :     0.000576
      f-1     :     0.000714
      f+2     :     0.000397
      f-2     :     0.001106
      f+3     :     0.002850
      f-3     :     0.001306

  3 H s       :     0.878191  s :     0.878191
      pz      :     0.004877  p :     0.021794
      px      :     0.010740
      py      :     0.006178

  4 C s       :     3.176542  s :     3.176542
      pz      :     0.942063  p :     2.811374
      px      :     0.921247
      py      :     0.948064
      dz2     :     0.004576  d :     0.088856
      dxz     :     0.021146
      dyz     :     0.004740
      dx2y2   :     0.038456
      dxy     :     0.019938
      f0      :     0.001457  f :     0.006880
      f+1     :     0.000507
      f-1     :     0.000613
      f+2     :     0.000165
      f-2     :     0.001101
      f+3     :     0.002193
      f-3     :     0.000845

  5 C s       :     3.238635  s :     3.238635
      pz      :     0.936706  p :     2.960709
      px      :     0.953256
      py      :     1.070746
      dz2     :     0.003208  d :     0.083657
      dxz     :     0.000324
      dyz     :     0.037368
      dx2y2   :     0.012376
      dxy     :     0.030380
      f0      :     0.002355  f :     0.015342
      f+1     :     0.000409
      f-1     :     0.001144
      f+2     :     0.003706
      f-2     :     0.000029
      f+3     :     0.005682
      f-3     :     0.002017

  6 H s       :     0.867631  s :     0.867631
      pz      :     0.004793  p :     0.021896
      px      :     0.010834
      py      :     0.006269

  7 N s       :     3.555333  s :     3.555333
      pz      :     1.061081  p :     3.344274
      px      :     1.042682
      py      :     1.240510
      dz2     :     0.001777  d :     0.038406
      dxz     :     0.000002
      dyz     :     0.015519
      dx2y2   :     0.005331
      dxy     :     0.015777
      f0      :     0.000343  f :     0.001848
      f+1     :     0.000061
      f-1     :     0.000003
      f+2     :     0.000560
      f-2     :     0.000000
      f+3     :     0.000869
      f-3     :     0.000012

  8 C s       :     3.149654  s :     3.149654
      pz      :     0.955825  p :     2.812968
      px      :     0.932669
      py      :     0.924475
      dz2     :     0.004593  d :     0.088432
      dxz     :     0.008835
      dyz     :     0.016904
      dx2y2   :     0.024530
      dxy     :     0.033570
      f0      :     0.001499  f :     0.006970
      f+1     :     0.000600
      f-1     :     0.000546
      f+2     :     0.000876
      f-2     :     0.000386
      f+3     :     0.002226
      f-3     :     0.000836

  9 H s       :     0.878133  s :     0.878133
      pz      :     0.004801  p :     0.021698
      px      :     0.003902
      py      :     0.012995

 10 H s       :     0.878191  s :     0.878191
      pz      :     0.004877  p :     0.021795
      px      :     0.010770
      py      :     0.006148

 11 C s       :     3.267293  s :     3.267293
      pz      :     0.952015  p :     2.852285
      px      :     0.956306
      py      :     0.943965
      dz2     :     0.004770  d :     0.090433
      dxz     :     0.009135
      dyz     :     0.018205
      dx2y2   :     0.023682
      dxy     :     0.034641
      f0      :     0.001454  f :     0.006964
      f+1     :     0.000620
      f-1     :     0.000546
      f+2     :     0.000841
      f-2     :     0.000458
      f+3     :     0.002163
      f-3     :     0.000882

 12 H s       :     0.867628  s :     0.867628
      pz      :     0.004793  p :     0.021896
      px      :     0.010865
      py      :     0.006237



                     *******************************
                     * LOEWDIN POPULATION ANALYSIS *
                     *******************************

----------------------
LOEWDIN ATOMIC CHARGES
----------------------
   0 C :   -0.124765
   1 C :   -0.075392
   2 C :   -0.143118
   3 H :    0.146933
   4 C :   -0.119297
   5 C :   -0.155534
   6 H :    0.153658
   7 N :    0.071387
   8 C :   -0.124765
   9 H :    0.145682
  10 H :    0.146932
  11 C :   -0.075381
  12 H :    0.153659

-------------------------------
LOEWDIN REDUCED ORBITAL CHARGES
-------------------------------
  0 C s       :     2.774236  s :     2.774236
      pz      :     0.879368  p :     2.932865
      px      :     1.008341
      py      :     1.045156
      dz2     :     0.025380  d :     0.376054
      dxz     :     0.026795
      dyz     :     0.057381
      dx2y2   :     0.118415
      dxy     :     0.148084
      f0      :     0.003050  f :     0.041609
      f+1     :     0.003482
      f-1     :     0.004106
      f+2     :     0.005716
      f-2     :     0.002696
      f+3     :     0.014965
      f-3     :     0.007594

  1 C s       :     2.769294  s :     2.769294
      pz      :     0.867895  p :     2.894164
      px      :     0.991015
      py      :     1.035253
      dz2     :     0.025506  d :     0.370920
      dxz     :     0.027261
      dyz     :     0.058780
      dx2y2   :     0.112761
      dxy     :     0.146611
      f0      :     0.003038  f :     0.041015
      f+1     :     0.003454
      f-1     :     0.004003
      f+2     :     0.005815
      f-2     :     0.002941
      f+3     :     0.014263
      f-3     :     0.007501

  2 C s       :     2.709269  s :     2.709269
      pz      :     0.871991  p :     2.868134
      px      :     1.038023
      py      :     0.958120
      dz2     :     0.033811  d :     0.510632
      dxz     :     0.077258
      dyz     :     0.058979
      dx2y2   :     0.188009
      dxy     :     0.152575
      f0      :     0.003846  f :     0.055083
      f+1     :     0.004378
      f-1     :     0.004522
      f+2     :     0.004795
      f-2     :     0.007292
      f+3     :     0.020916
      f-3     :     0.009334

  3 H s       :     0.794577  s :     0.794577
      pz      :     0.013043  p :     0.058490
      px      :     0.028774
      py      :     0.016673

  4 C s       :     2.776686  s :     2.776686
      pz      :     0.866888  p :     2.923732
      px      :     1.066780
      py      :     0.990065
      dz2     :     0.025423  d :     0.377451
      dxz     :     0.073587
      dyz     :     0.011755
      dx2y2   :     0.165158
      dxy     :     0.101529
      f0      :     0.003005  f :     0.041428
      f+1     :     0.004332
      f-1     :     0.003171
      f+2     :     0.001231
      f-2     :     0.007274
      f+3     :     0.014937
      f-3     :     0.007478

  5 C s       :     2.820834  s :     2.820834
      pz      :     0.865736  p :     2.858940
      px      :     0.843665
      py      :     1.149539
      dz2     :     0.040848  d :     0.417556
      dxz     :     0.000504
      dyz     :     0.132214
      dx2y2   :     0.118540
      dxy     :     0.125450
      f0      :     0.006183  f :     0.058204
      f+1     :     0.001066
      f-1     :     0.009368
      f+2     :     0.010132
      f-2     :     0.000048
      f+3     :     0.015314
      f-3     :     0.016092

  6 H s       :     0.786985  s :     0.786985
      pz      :     0.013097  p :     0.059357
      px      :     0.029153
      py      :     0.017106

  7 N s       :     3.314316  s :     3.314316
      pz      :     1.016980  p :     3.494231
      px      :     1.005758
      py      :     1.471493
      dz2     :     0.011576  d :     0.105040
      dxz     :     0.000003
      dyz     :     0.029486
      dx2y2   :     0.034770
      dxy     :     0.029205
      f0      :     0.001584  f :     0.015027
      f+1     :     0.000271
      f-1     :     0.002452
      f+2     :     0.002628
      f-2     :     0.000000
      f+3     :     0.004018
      f-3     :     0.004074

  8 C s       :     2.774237  s :     2.774237
      pz      :     0.879368  p :     2.932866
      px      :     1.008599
      py      :     1.044899
      dz2     :     0.025379  d :     0.376053
      dxz     :     0.026999
      dyz     :     0.057176
      dx2y2   :     0.117984
      dxy     :     0.148513
      f0      :     0.003050  f :     0.041609
      f+1     :     0.003486
      f-1     :     0.004102
      f+2     :     0.005754
      f-2     :     0.002658
      f+3     :     0.014964
      f-3     :     0.007596

  9 H s       :     0.795834  s :     0.795834
      pz      :     0.012851  p :     0.058483
      px      :     0.010853
      py      :     0.034780

 10 H s       :     0.794578  s :     0.794578
      pz      :     0.013043  p :     0.058490
      px      :     0.028853
      py      :     0.016593

 11 C s       :     2.769296  s :     2.769296
      pz      :     0.867896  p :     2.894155
      px      :     0.990902
      py      :     1.035357
      dz2     :     0.025506  d :     0.370915
      dxz     :     0.027051
      dyz     :     0.058988
      dx2y2   :     0.113110
      dxy     :     0.146260
      f0      :     0.003037  f :     0.041014
      f+1     :     0.003450
      f-1     :     0.004006
      f+2     :     0.005773
      f-2     :     0.002983
      f+3     :     0.014254
      f-3     :     0.007510

 12 H s       :     0.786984  s :     0.786984
      pz      :     0.013097  p :     0.059357
      px      :     0.029238
      py      :     0.017022



                      *****************************
                      * MAYER POPULATION ANALYSIS *
                      *****************************

  NA   - Mulliken gross atomic population
  ZA   - Total nuclear charge
  QA   - Mulliken gross atomic charge
  VA   - Mayer's total valence
  BVA  - Mayer's bonded valence
  FA   - Mayer's free valence

  ATOM       NA         ZA         QA         VA         BVA        FA
  0 C      6.0580     6.0000    -0.0580     3.9227     3.9227     0.0000
  1 C      6.2170     6.0000    -0.2170     4.0210     4.0210     0.0000
  2 C      5.6493     6.0000     0.3507     3.6250     3.6250     0.0000
  3 H      0.9000     1.0000     0.1000     0.9664     0.9664     0.0000
  4 C      6.0837     6.0000    -0.0837     3.9693     3.9693     0.0000
  5 C      6.2983     6.0000    -0.2983     4.0811     4.0811     0.0000
  6 H      0.8895     1.0000     0.1105     0.9749     0.9749     0.0000
  7 N      6.9399     7.0000     0.0601     3.2571     3.2571     0.0000
  8 C      6.0580     6.0000    -0.0580     3.9227     3.9227     0.0000
  9 H      0.8998     1.0000     0.1002     0.9655     0.9655     0.0000
 10 H      0.9000     1.0000     0.1000     0.9664     0.9664     0.0000
 11 C      6.2170     6.0000    -0.2170     4.0210     4.0210     0.0000
 12 H      0.8895     1.0000     0.1105     0.9749     0.9749     0.0000

  Mayer bond orders larger than 0.100000
B(  0-C ,  1-C ) :   1.4331 B(  0-C ,  4-C ) :   1.3962 B(  0-C , 10-H ) :   0.9646 
B(  1-C ,  2-C ) :   1.3354 B(  1-C ,  6-H ) :   0.9740 B(  2-C ,  5-C ) :   0.9136 
B(  2-C , 11-C ) :   1.3354 B(  3-H ,  8-C ) :   0.9646 B(  4-C ,  8-C ) :   1.3962 
B(  4-C ,  9-H ) :   0.9620 B(  5-C ,  7-N ) :   3.1189 B(  8-C , 11-C ) :   1.4331 
B( 11-C , 12-H ) :   0.9740 

-------
TIMINGS
-------

Total SCF time: 0 days 0 hours 0 min 9 sec 

Total time                  ....       9.344 sec
Sum of individual times     ....       8.827 sec  ( 94.5%)

SCF preparation             ....       0.020 sec  (  0.2%)
Fock matrix formation       ....       8.704 sec  ( 93.2%)
  Startup                   ....       0.001 sec  (  0.0% of F)
  Split-RI-J                ....       2.604 sec  ( 29.9% of F)
  XC integration            ....       6.582 sec  ( 75.6% of F)
    XC Preparation          ....       0.000 sec  (  0.0% of XC)
    Basis function eval.    ....       2.030 sec  ( 30.8% of XC)
    Density eval.           ....       1.101 sec  ( 16.7% of XC)
    XC-Functional eval.     ....       0.145 sec  (  2.2% of XC)
    XC-Potential eval.      ....       3.166 sec  ( 48.1% of XC)
Diagonalization             ....       0.000 sec  (  0.0%)
Density matrix formation    ....       0.013 sec  (  0.1%)
Total Energy calculation    ....       0.011 sec  (  0.1%)
Population analysis         ....       0.004 sec  (  0.0%)
Orbital Transformation      ....       0.010 sec  (  0.1%)
Orbital Orthonormalization  ....       0.000 sec  (  0.0%)
DIIS solution               ....       0.043 sec  (  0.5%)
SOSCF solution              ....       0.023 sec  (  0.2%)
Finished LeanSCF after   9.3 sec

Maximum memory used throughout the entire LEANSCF-calculation: 28.5 MB

------------------------------------------------------------------------------
                         ORCA PROPERTY INTEGRAL CALCULATIONS
------------------------------------------------------------------------------

GBWName                                   ... job.gbw
Number of atoms                           ...     13
Number of basis functions                 ...    278
Max core memory                           ...  16384 MB

Dipole integrals                          ... YES
Quadrupole integrals                      ...  NO
Linear momentum integrals                 ...  NO
Angular momentum integrals                ...  NO
Higher moments length integrals           ...  NO
Higher moments velocity integrals         ...  NO
Kinetic energy integrals                  ...  NO
GIAO right hand sides                     ...  NO
GIAO dipole derivative integrals          ...  NO
SOC integrals                             ...  NO
EPR diamagnetic integrals (GIAO)          ...  NO
EPR gauge integrals                       ...  NO
Field gradient integrals                  ...  NO (   0 nuclei)
Spin-dipole/Fermi contact integrals       ...  NO (   0 nuclei)
Contact density integrals                 ...  NO (   0 nuclei)
Nucleus-orbit integrals                   ...  NO (   0 nuclei)
Geometric perturbations                   ...  NO (  13 nuclei)

Choice of electric origin   ... Center of mass
Position of electric origin ... ( -4.8170,  1.4831, -0.0002) 
Choice of magnetic origin   ... GIAO
Position of magnetic origin ... (  0.0000,  0.0000,  0.0000) 

Calculating integrals                     ... Electric Dipole (Length)     done (  0.0 sec)

Property integrals calculated in   0.0 sec

Maximum memory used throughout the entire PROPINT-calculation: 24.0 MB

-------------------------   --------------------
FINAL SINGLE POINT ENERGY      -324.523040134054
-------------------------   --------------------

------------------------------------------------------------------------------
                         ORCA SCF GRADIENT CALCULATION
------------------------------------------------------------------------------

Nuc. rep. gradient        (SHARK) ... done (  0.0 sec)
HCore & Overlap gradient  (SHARK) ... done (  0.1 sec)
Split-RIJ-J gradient      (SHARK) ... done (  0.9 sec)
XC gradient                       ... done (  2.5 sec)

------------------
CARTESIAN GRADIENT
------------------

   1   C   :    0.000071835   -0.000034931   -0.000000030
   2   C   :   -0.000088530    0.000034521    0.000000082
   3   C   :    0.000003521   -0.000078270   -0.000000130
   4   H   :    0.000011843   -0.000020620    0.000000033
   5   C   :   -0.000001561    0.000093582    0.000000101
   6   C   :   -0.000019387    0.000061631    0.000000104
   7   H   :   -0.000000233    0.000002595   -0.000000024
   8   N   :    0.000009633   -0.000025277   -0.000000044
   9   C   :   -0.000069022   -0.000036505   -0.000000112
  10   H   :   -0.000000161   -0.000015316   -0.000000027
  11   H   :   -0.000012512   -0.000019618   -0.000000005
  12   C   :    0.000096160    0.000036957    0.000000052
  13   H   :   -0.000001586    0.000001250   -0.000000000

Difference to translation invariance:
           :    0.0000000000   -0.0000000000    0.0000000000

Difference to rotation invariance:
           :    0.0000000149    0.0000000019   -0.0000210938

Norm of the Cartesian gradient     ...    0.0002308158
RMS gradient                       ...    0.0000369601
MAX gradient                       ...    0.0000961605

-------
TIMINGS
-------

Total SCF gradient time     ....        3.539 sec

Densities                   ....       0.000 sec  (  0.0%)
One electron gradient       ....       0.110 sec  (  3.1%)
RI-J Coulomb gradient       ....       0.905 sec  ( 25.6%)
XC gradient                 ....       2.523 sec  ( 71.3%)

Maximum memory used throughout the entire SCFGRAD-calculation: 37.4 MB
------------------------------------------------------------------------------
                         ORCA GEOMETRY RELAXATION STEP
------------------------------------------------------------------------------

Reading the OPT-File                    .... done
Getting information on internals        .... done
Copying old internal coords+grads       .... done
Making the new internal coordinates     .... (2022 redundants) done
Validating the new internal coordinates .... (2022 redundants) done
Calculating the B-matrix                .... done
Calculating the G,G- and P matrices     .... done
Transforming gradient to internals      .... done
Projecting the internal gradient        .... done
Number of atoms                         ....  13
Number of internal coordinates          ....  57
Current Energy                          ....  -324.523040134 Eh
Current gradient norm                   ....     0.000230816 Eh/bohr
Maximum allowed component of the step   ....  0.300
Current trust radius                    ....  0.300
Evaluating the initial hessian          ....  (Almloef) done
Projecting the Hessian                  .... done
Forming the augmented Hessian           .... done
Diagonalizing the augmented Hessian     .... done
Last element of RFO vector              ....  0.999999946
Lowest eigenvalues of augmented Hessian:
 -0.000000046  0.022840542  0.023318145  0.024039809  0.024270783
Length of the computed step             ....  0.000327333
The final length of the internal step   ....  0.000327333
Converting the step to Cartesian space:
 Initial RMS(Int)=    0.0000433564
Transforming coordinates:
 Iter   0:  RMS(Cart)=    0.0000556825 RMS(Int)=    2.0385343366
done
Storing new coordinates                 .... done

                                .--------------------.
          ----------------------|Geometry convergence|-------------------------
          Item                value                   Tolerance       Converged
          ---------------------------------------------------------------------
          RMS gradient        0.0000192068            0.0001000000      YES
          MAX gradient        0.0000542789            0.0003000000      YES
          RMS step            0.0000433564            0.0020000000      YES
          MAX step            0.0001235124            0.0040000000      YES
          -------------------------------------------------------------------------
          ........................................................
          Max(Bonds)      0.0001      Max(Angles)    0.01
          Max(Dihed)        0.00      Max(Improp)    0.00
          ---------------------------------------------------------------------

                    ***********************HURRAY********************
                    ***        THE OPTIMIZATION HAS CONVERGED     ***
                    *************************************************


    ---------------------------------------------------------------------------
                         Redundant Internal Coordinates

                          --- Optimized Parameters ---  
                            (Angstroem and degrees)

        Definition                    OldVal   dE/dq     Step     FinalVal
    ----------------------------------------------------------------------------
     1. B(C   1,C   0)                1.3973 -0.000017  0.0000    1.3973   
     2. B(C   2,C   1)                1.4118  0.000049 -0.0000    1.4117   
     3. B(C   4,C   0)                1.4021  0.000006 -0.0000    1.4021   
     4. B(C   5,C   2)                1.4356 -0.000036  0.0000    1.4357   
     5. B(H   6,C   1)                1.0908 -0.000001  0.0000    1.0908   
     6. B(N   7,C   5)                1.1691  0.000025 -0.0000    1.1691   
     7. B(C   8,H   3)                1.0917 -0.000000  0.0000    1.0917   
     8. B(C   8,C   4)                1.4021  0.000009 -0.0000    1.4021   
     9. B(H   9,C   4)                1.0918 -0.000015  0.0000    1.0919   
    10. B(H  10,C   0)                1.0917  0.000001 -0.0000    1.0917   
    11. B(C  11,C   8)                1.3973 -0.000016  0.0000    1.3973   
    12. B(C  11,C   2)                1.4118  0.000054 -0.0001    1.4117   
    13. B(H  12,C  11)                1.0908 -0.000002  0.0000    1.0908   
    14. A(C   1,C   0,H  10)          119.59 -0.000047    0.01    119.60   
    15. A(C   4,C   0,H  10)          120.14  0.000002   -0.00    120.14   
    16. A(C   1,C   0,C   4)          120.27  0.000045   -0.01    120.26   
    17. A(C   2,C   1,H   6)          119.52  0.000011   -0.00    119.52   
    18. A(C   0,C   1,C   2)          119.73 -0.000017    0.00    119.74   
    19. A(C   0,C   1,H   6)          120.74  0.000007   -0.00    120.74   
    20. A(C   5,C   2,C  11)          120.04  0.000005   -0.00    120.04   
    21. A(C   1,C   2,C   5)          120.04  0.000004   -0.00    120.04   
    22. A(C   1,C   2,C  11)          119.92 -0.000009    0.00    119.92   
    23. A(C   8,C   4,H   9)          119.96  0.000022   -0.00    119.96   
    24. A(C   0,C   4,H   9)          119.96  0.000021   -0.00    119.96   
    25. A(C   0,C   4,C   8)          120.07 -0.000044    0.01    120.08   
    26. L(C   2,C   5,N   7,C  11, 2) 180.00  0.000000   -0.00    180.00   
    27. L(C   2,C   5,N   7,C  11, 1) 179.99 -0.000023    0.00    179.99   
    28. A(H   3,C   8,C   4)          120.14  0.000002   -0.00    120.14   
    29. A(C   4,C   8,C  11)          120.27  0.000045   -0.01    120.26   
    30. A(H   3,C   8,C  11)          119.59 -0.000046    0.01    119.60   
    31. A(C   8,C  11,H  12)          120.75  0.000009   -0.00    120.74   
    32. A(C   2,C  11,H  12)          119.52  0.000010   -0.00    119.52   
    33. A(C   2,C  11,C   8)          119.73 -0.000019    0.00    119.74   
    34. D(H   6,C   1,C   0,C   4)   -180.00  0.000000   -0.00   -180.00   
    35. D(H   6,C   1,C   0,H  10)      0.00  0.000000   -0.00      0.00   
    36. D(C   2,C   1,C   0,H  10)    180.00 -0.000000    0.00    180.00   
    37. D(C   2,C   1,C   0,C   4)     -0.00 -0.000000    0.00     -0.00   
    38. D(C  11,C   2,C   1,C   0)      0.00  0.000000   -0.00     -0.00   
    39. D(C   5,C   2,C   1,C   0)    180.00 -0.000000    0.00    180.00   
    40. D(C   5,C   2,C   1,H   6)     -0.00 -0.000000    0.00     -0.00   
    41. D(C  11,C   2,C   1,H   6)    180.00 -0.000000    0.00    180.00   
    42. D(H   9,C   4,C   0,H  10)     -0.00 -0.000000    0.00     -0.00   
    43. D(H   9,C   4,C   0,C   1)    180.00 -0.000000    0.00    180.00   
    44. D(C   8,C   4,C   0,H  10)   -180.00  0.000000   -0.00   -180.00   
    45. D(C   8,C   4,C   0,C   1)      0.00  0.000000   -0.00      0.00   
    46. D(C  11,C   8,C   4,C   0)     -0.00 -0.000000    0.00     -0.00   
    47. D(H   3,C   8,C   4,H   9)      0.00  0.000000   -0.00      0.00   
    48. D(H   3,C   8,C   4,C   0)   -180.00  0.000000   -0.00   -180.00   
    49. D(C  11,C   8,C   4,H   9)   -180.00  0.000000   -0.00   -180.00   
    50. D(H  12,C  11,C   8,C   4)   -180.00  0.000000   -0.00   -180.00   
    51. D(C   2,C  11,C   8,C   4)      0.00  0.000000   -0.00      0.00   
    52. D(C   2,C  11,C   8,H   3)    180.00 -0.000000    0.00    180.00   
    53. D(H  12,C  11,C   2,C   5)      0.00  0.000000   -0.00      0.00   
    54. D(H  12,C  11,C   2,C   1)    180.00 -0.000000    0.00    180.00   
    55. D(H  12,C  11,C   8,H   3)     -0.00 -0.000000    0.00     -0.00   
    56. D(C   8,C  11,C   2,C   5)   -180.00  0.000000   -0.00   -180.00   
    57. D(C   8,C  11,C   2,C   1)     -0.00 -0.000000    0.00      0.00   
    ----------------------------------------------------------------------------

Geometry step timings:
Preparation and reading OPT file:      0.000 s ( 1.235 %)
Internal coordinates            :      0.000 s (16.049 %)
B/P matrices and projection     :      0.000 s (17.207 %)
Hessian update/contruction      :      0.000 s (20.293 %)
Making the step                 :      0.000 s (19.830 %)
Converting the step to Cartesian:      0.000 s ( 1.543 %)
Storing new data                :      0.000 s ( 4.167 %)
Checking convergence            :      0.000 s ( 2.238 %)
Final printing                  :      0.000 s (17.361 %)
Total time                      :      0.001 s
                 *******************************************************
                 *** FINAL ENERGY EVALUATION AT THE STATIONARY POINT ***
                 ***               (AFTER    1 CYCLES)               ***
                 *******************************************************
---------------------------------
CARTESIAN COORDINATES (ANGSTROEM)
---------------------------------
  C     -3.766765    2.333318   -0.000053
  C     -3.771471    0.935987   -0.000070
  C     -2.548006    0.231621   -0.000095
  H     -0.392047    2.884002   -0.000090
  C     -2.553414    3.035850   -0.000060
  C     -2.545211   -1.204044   -0.000112
  H     -4.710840    0.381550   -0.000065
  N     -2.542692   -2.373153   -0.000128
  C     -1.337356    2.338012   -0.000085
  H     -2.555522    4.127701   -0.000047
  H     -4.714170    2.875665   -0.000034
  C     -1.327262    0.940712   -0.000102
  H     -0.385771    0.389886   -0.000121

----------------------------
CARTESIAN COORDINATES (A.U.)
----------------------------
  NO LB      ZA    FRAG     MASS         X           Y           Z
   0 C     6.0000    0    12.011   -7.118155    4.409331   -0.000100
   1 C     6.0000    0    12.011   -7.127047    1.768758   -0.000132
   2 C     6.0000    0    12.011   -4.815033    0.437701   -0.000179
   3 H     1.0000    0     1.008   -0.740862    5.449975   -0.000170
   4 C     6.0000    0    12.011   -4.825254    5.736924   -0.000114
   5 C     6.0000    0    12.011   -4.809751   -2.275314   -0.000212
   6 H     1.0000    0     1.008   -8.902197    0.721025   -0.000122
   7 N     7.0000    0    14.007   -4.804992   -4.484608   -0.000241
   8 C     6.0000    0    12.011   -2.527237    4.418202   -0.000160
   9 H     1.0000    0     1.008   -4.829237    7.800225   -0.000089
  10 H     1.0000    0     1.008   -8.908489    5.434219   -0.000064
  11 C     6.0000    0    12.011   -2.508161    1.777689   -0.000192
  12 H     1.0000    0     1.008   -0.729001    0.736777   -0.000228

--------------------------------
INTERNAL COORDINATES (ANGSTROEM)
--------------------------------
 C      0   0   0     0.000000000000     0.00000000     0.00000000
 C      1   0   0     1.397338918504     0.00000000     0.00000000
 C      2   1   0     1.411735579757   119.73667911     0.00000000
 H      3   2   1     3.418081631498    99.17593673     0.00000000
 C      1   2   3     1.402059890381   120.26383803     0.00000000
 C      3   2   1     1.435668136075   120.04116858   180.00000342
 H      2   1   3     1.090786174988   120.74299676   180.00000841
 N      6   3   2     1.169111193231   179.98812723   179.73256070
 C      4   3   2     1.091656911307    20.88462433     0.00000000
 H      5   1   2     1.091853694202   119.96028411   179.99999344
 H      1   2   3     1.091657025830   119.59630311   180.00000709
 C      9   4   3     1.397335880285   119.59590313     0.00000000
 H     12   9   4     1.090786330162   120.74402556     0.00000000

---------------------------
INTERNAL COORDINATES (A.U.)
---------------------------
 C      0   0   0     0.000000000000     0.00000000     0.00000000
 C      1   0   0     2.640587872242     0.00000000     0.00000000
 C      2   1   0     2.667793619253   119.73667911     0.00000000
 H      3   2   1     6.459238186918    99.17593673     0.00000000
 C      1   2   3     2.649509216177   120.26383803     0.00000000
 C      3   2   1     2.713019596378   120.04116858   180.00000342
 H      2   1   3     2.061287141395   120.74299676   180.00000841
 N      6   3   2     2.209299975309   179.98812723   179.73256070
 C      4   3   2     2.062932594573    20.88462433     0.00000000
 H      5   1   2     2.063304460352   119.96028411   179.99999344
 H      1   2   3     2.062932810990   119.59630311   180.00000709
 C      9   4   3     2.640582130840   119.59590313     0.00000000
 H     12   9   4     2.061287434631   120.74402556     0.00000000

---------------------
BASIS SET INFORMATION
---------------------
There are 3 groups of distinct atoms

 Group   1 Type C   : 11s6p2d1f contracted to 5s3p2d1f pattern {62111/411/11/1}
 Group   2 Type H   : 5s1p contracted to 3s1p pattern {311/1}
 Group   3 Type N   : 11s6p2d1f contracted to 5s3p2d1f pattern {62111/411/11/1}

Atom   0C    basis set group =>   1
Atom   1C    basis set group =>   1
Atom   2C    basis set group =>   1
Atom   3H    basis set group =>   2
Atom   4C    basis set group =>   1
Atom   5C    basis set group =>   1
Atom   6H    basis set group =>   2
Atom   7N    basis set group =>   3
Atom   8C    basis set group =>   1
Atom   9H    basis set group =>   2
Atom  10H    basis set group =>   2
Atom  11C    basis set group =>   1
Atom  12H    basis set group =>   2
---------------------------------
AUXILIARY/J BASIS SET INFORMATION
---------------------------------
There are 3 groups of distinct atoms

 Group   1 Type C   : 12s5p4d2f1g contracted to 6s4p3d1f1g pattern {711111/2111/211/2/1}
 Group   2 Type H   : 5s2p1d contracted to 3s1p1d pattern {311/2/1}
 Group   3 Type N   : 12s5p4d2f1g contracted to 6s4p3d1f1g pattern {711111/2111/211/2/1}

Atom   0C    basis set group =>   1
Atom   1C    basis set group =>   1
Atom   2C    basis set group =>   1
Atom   3H    basis set group =>   2
Atom   4C    basis set group =>   1
Atom   5C    basis set group =>   1
Atom   6H    basis set group =>   2
Atom   7N    basis set group =>   3
Atom   8C    basis set group =>   1
Atom   9H    basis set group =>   2
Atom  10H    basis set group =>   2
Atom  11C    basis set group =>   1
Atom  12H    basis set group =>   2
------------------------------------------------------------------------------
                             ORCA STARTUP CALCULATIONS
                           -- RI-GTO INTEGRALS CHOSEN --
------------------------------------------------------------------------------
------------------------------------------------------------------------------
                   ___                                                        
                  /   \      - P O W E R E D   B Y -                         
                 /     \                                                     
                 |  |  |   _    _      __       _____    __    __             
                 |  |  |  | |  | |    /  \     |  _  \  |  |  /  |          
                  \  \/   | |  | |   /    \    | | | |  |  | /  /          
                 / \  \   | |__| |  /  /\  \   | |_| |  |  |/  /          
                |  |  |   |  __  | /  /__\  \  |    /   |      \           
                |  |  |   | |  | | |   __   |  |    \   |  |\   \          
                \     /   | |  | | |  |  |  |  | |\  \  |  | \   \       
                 \___/    |_|  |_| |__|  |__|  |_| \__\ |__|  \__/        
                                                                              
                      - O R C A' S   B I G   F R I E N D -                    
                                      &                                       
                       - I N T E G R A L  F E E D E R -                       
                                                                              
 v1 FN, 2020, v2 2021, v3 2022-2024                                           
------------------------------------------------------------------------------


----------------------
SHARK INTEGRAL PACKAGE
----------------------

Number of atoms                             ...     13
Number of basis functions                   ...    278
Number of shells                            ...    108
Maximum angular momentum                    ...      3
Integral batch strategy                     ... SHARK/LIBINT Hybrid
RI-J (if used) integral strategy            ... SPLIT-RIJ (Revised 2003 algorithm where possible)
Printlevel                                  ...      1
Contraction scheme used                     ... SEGMENTED contraction
Prescreening option                         ... SCHWARTZ
   Thresh                                   ... 2.500e-11
   Tcut                                     ... 2.500e-12
   Tpresel                                  ... 2.500e-12 
Coulomb Range Separation                    ... NOT USED
Exchange Range Separation                   ... NOT USED
Multipole approximations                    ... NOT USED
Finite Nucleus Model                        ... NOT USED
CABS basis                                  ... NOT available
Auxiliary Coulomb fitting basis             ... AVAILABLE
   # of basis functions in Aux-J            ...    447
   # of shells in Aux-J                     ...    145
   Maximum angular momentum in Aux-J        ...      4
Auxiliary J/K fitting basis                 ... NOT available
Auxiliary Correlation fitting basis         ... NOT available
Auxiliary 'external' fitting basis          ... NOT available

Checking pre-screening integrals            ... done (  0.0 sec) Dimension = 108
   => SHARK Basis and OBASIS are compatible. Storing Pre-screening
Shell pair information
Shell pair cut-off parameter TPreSel        ...   2.5e-12
Total number of shell pairs                 ...      5886
Shell pairs after pre-screening             ...      5424
Total number of primitive shell pairs       ...     18336
Primitive shell pairs kept                  ...     12809
          la=0 lb=0:   1347 shell pairs
[...]
     30       0.243477  -0.217844  -0.219882   0.163719   0.099034  -0.292713
     31       0.420297  -0.311141  -0.602013   0.334453   0.188411  -0.340728
     32       0.000002  -0.000002  -0.000002   0.000001   0.000001  -0.000003
     33       0.004332   0.026438   0.018221  -0.039380   0.113487  -0.061095
     34      -0.003399   0.033653   0.075052   0.002066   0.206334   0.095344
     35      -0.000000   0.000000   0.000001   0.000001   0.000001   0.000002
     36       0.087900   0.303729  -0.037450  -0.316398  -0.251916  -0.194663
     37       0.139845   0.502473   0.004936  -0.465347  -0.419007  -0.098287
     38       0.000001   0.000003  -0.000001  -0.000001  -0.000002   0.000004
                 30         31         32         33         34         35    
      0      -0.104734  -0.210400   0.075084   0.001471   0.035320  -0.047532
      1      -0.103631  -0.057858   0.285124   0.009330  -0.021249   0.026857
      2       0.000000   0.000002   0.000002  -0.000000  -0.000001   0.000001
      3       0.099706   0.176685   0.077064   0.006068  -0.012181   0.022583
      4      -0.077239  -0.106815  -0.290581  -0.013669  -0.006252   0.011856
      5      -0.000002  -0.000004  -0.000005   0.000000   0.000000  -0.000000
      6      -0.000291  -0.258703  -0.000405   0.000233   0.000001  -0.000429
      7       0.145398  -0.000485   0.194568  -0.116980  -0.000554  -0.000001
      8       0.000002   0.000003   0.000002  -0.000002  -0.000000   0.000000
      9      -0.194829  -0.068967   0.245787   0.004036   0.425173   0.549174
     10       0.432939  -0.224189  -0.256198   0.003388   0.247143   0.317433
     11       0.000008  -0.000002  -0.000006  -0.000000  -0.000002  -0.000003
     12      -0.000232   0.381905   0.000296   0.000005  -0.000110   0.002683
     13       0.100629   0.000760  -0.145775  -0.002814   0.056709   0.000015
     14       0.000002  -0.000005  -0.000002   0.000000   0.000001  -0.000000
     15       0.000006   0.018124   0.000013  -0.001707   0.000000   0.000120
     16      -0.004842   0.000038  -0.006668   0.805043  -0.000118   0.000000
     17      -0.000000  -0.000000  -0.000000   0.000010  -0.000000   0.000000
     18      -0.181419  -0.055699  -0.270089  -0.006240   0.144567  -0.265196
     19       0.425098   0.302368   0.284758   0.003675   0.083907  -0.153882
     20       0.000008   0.000005   0.000007   0.000000  -0.000001   0.000001
     21       0.000062  -0.005030   0.000041   0.001249  -0.000000  -0.000052
     22      -0.028909  -0.000019  -0.018845  -0.580867   0.000140  -0.000000
     23      -0.000000   0.000000  -0.000000  -0.000008  -0.000000   0.000000
     24       0.105158  -0.210578  -0.076203  -0.001506  -0.035226  -0.047430
     25      -0.103190   0.056982   0.284840   0.009325  -0.021378  -0.027041
     26      -0.000003   0.000003   0.000005  -0.000000   0.000000   0.000000
     27      -0.000114  -0.554367   0.000275   0.000019   0.001298  -0.003299
     28       0.120384  -0.001041  -0.160376  -0.003993  -0.673267  -0.000120
     29      -0.000000   0.000007  -0.000001  -0.000001  -0.000008   0.000000
     30       0.193236  -0.069767  -0.244806  -0.004051  -0.426253   0.550361
     31       0.433726   0.224045  -0.257128   0.003368   0.245577  -0.315295
     32       0.000002   0.000003   0.000000  -0.000002   0.000009  -0.000011
     33      -0.099409   0.176251  -0.075911  -0.006019   0.012203   0.022633
     34      -0.077659   0.107511  -0.290873  -0.013690  -0.006204  -0.011772
     35       0.000000  -0.000001  -0.000003  -0.000000  -0.000000  -0.000000
     36       0.179834  -0.054527   0.269010   0.006222  -0.144862  -0.265841
     37       0.425831  -0.302497   0.285758   0.003708   0.083335   0.152894
     38       0.000004  -0.000003  -0.000001   0.000002   0.000003   0.000005
                 36         37         38    
      0       0.025155   0.023066  -0.031486
      1      -0.010959  -0.015527   0.018534
      2      -0.000000  -0.000000   0.000001
      3      -0.032423   0.047556  -0.040676
      4      -0.017342   0.029438  -0.024949
      5       0.000000  -0.000000   0.000000
      6       0.000003  -0.003395   0.000006
      7      -0.001714  -0.000007  -0.002651
      8      -0.000000   0.000000  -0.000000
      9       0.268055  -0.263093  -0.345365
     10       0.150736  -0.154736  -0.199913
     11      -0.000002   0.000001   0.000002
     12       0.000113  -0.002444  -0.000057
     13      -0.058599   0.000003   0.029456
     14      -0.000001   0.000000   0.000000
     15       0.000000   0.000411  -0.000000
     16       0.000025   0.000001   0.000082
     17      -0.000000  -0.000000  -0.000000
     18       0.370198  -0.546567   0.460678
     19       0.215129  -0.322820   0.271988
     20      -0.000002   0.000003  -0.000003
     21      -0.000000  -0.000098  -0.000001
     22       0.000187  -0.000000   0.000264
     23      -0.000000  -0.000000  -0.000000
     24      -0.025112   0.023021   0.031414
     25      -0.011055   0.015624   0.018654
     26       0.000000  -0.000000  -0.000000
     27      -0.001274   0.003194   0.000614
     28       0.660620  -0.000080  -0.318158
     29       0.000008  -0.000000  -0.000004
     30      -0.268643  -0.263521   0.346140
     31       0.149708   0.153627  -0.198587
     32       0.000005   0.000005  -0.000007
     33       0.032499   0.047673   0.040757
     34      -0.017224  -0.029259  -0.024784
     35      -0.000001  -0.000001  -0.000001
     36      -0.371145  -0.547847  -0.461545
     37       0.213776   0.320744   0.270113
     38       0.000008   0.000011   0.000009


-----------
IR SPECTRUM
-----------

 Mode   freq       eps      Int      T**2         TX        TY        TZ
       cm**-1   L/(mol*cm) km/mol    a.u.
----------------------------------------------------------------------------
  6:    138.82   0.000329    1.66  0.000739  ( 0.000009 -0.000002  0.027176)
  7:    161.00   0.000779    3.94  0.001510  (-0.038855 -0.000085 -0.000000)
  8:    373.50   0.000077    0.39  0.000065  ( 0.000002  0.000000 -0.008039)
  9:    389.22   0.000000    0.00  0.000000  ( 0.000002 -0.000002 -0.000014)
 10:    450.19   0.000001    0.00  0.000000  ( 0.000001 -0.000602 -0.000000)
 11:    549.11   0.003046   15.39  0.001731  ( 0.000001 -0.000001 -0.041604)
 12:    549.23   0.000017    0.09  0.000010  ( 0.003106  0.000024 -0.000008)
 13:    616.22   0.000023    0.12  0.000012  (-0.003397 -0.000015  0.000000)
 14:    677.42   0.006422   32.46  0.002958  ( 0.000002  0.000000  0.054392)
 15:    747.13   0.007510   37.95  0.003137  (-0.000003 -0.000002  0.056006)
 16:    749.65   0.000332    1.68  0.000138  ( 0.000023 -0.011749 -0.000019)
 17:    822.05   0.000000    0.00  0.000000  (-0.000004  0.000001 -0.000001)
 18:    901.74   0.000588    2.97  0.000203  (-0.000002  0.000004 -0.014259)
 19:    921.24   0.000000    0.00  0.000000  (-0.000001  0.000002  0.000010)
 20:    943.74   0.000027    0.14  0.000009  ( 0.000005  0.000003  0.002992)
 21:    985.12   0.000057    0.29  0.000018  ( 0.000009 -0.004236 -0.000000)
 22:   1020.10   0.000657    3.32  0.000201  (-0.000028  0.014177  0.000000)
 23:   1073.57   0.000815    4.12  0.000237  ( 0.015389  0.000033 -0.000000)
 24:   1154.62   0.000010    0.05  0.000003  (-0.001616 -0.000009  0.000000)
 25:   1166.34   0.000168    0.85  0.000045  (-0.000012  0.006705  0.000000)
 26:   1185.00   0.000070    0.36  0.000019  ( 0.000008 -0.004305 -0.000000)
 27:   1296.10   0.000022    0.11  0.000005  ( 0.002279  0.000003 -0.000000)
 28:   1326.85   0.000239    1.21  0.000056  (-0.007504 -0.000013  0.000000)
 29:   1429.98   0.001198    6.06  0.000262  (-0.016172 -0.000038  0.000000)
 30:   1473.66   0.001411    7.13  0.000299  (-0.000030  0.017285  0.000000)
 31:   1560.89   0.000218    1.10  0.000044  (-0.006604 -0.000010  0.000000)
 32:   1587.01   0.000144    0.73  0.000028  ( 0.000010 -0.005322 -0.000000)
 33:   2229.67   0.004327   21.87  0.000606  (-0.000044  0.024608  0.000000)
 34:   3100.67   0.000003    0.01  0.000000  ( 0.000001  0.000529  0.000000)
 35:   3110.75   0.000922    4.66  0.000092  (-0.009615 -0.000017  0.000000)
 36:   3119.74   0.002146   10.85  0.000215  ( 0.000027 -0.014653 -0.000000)
 37:   3129.12   0.001763    8.91  0.000176  ( 0.013259  0.000027 -0.000000)
 38:   3131.80   0.000534    2.70  0.000053  (-0.000016  0.007293  0.000000)

* The epsilon (eps) is given for a Dirac delta lineshape.
** The dipole moment derivative (T) already includes vibrational overlap.

The first frequency considered to be a vibration is 6
The total number of vibrations considered is 33


--------------------------
THERMOCHEMISTRY AT 298.15K
--------------------------

Temperature         ...   298.15 K
Pressure            ...     1.00 atm
Total Mass          ...   103.12 AMU
Quasi RRHO          ...     True
Cut-Off Frequency   ...     1.00 cm^-1

Throughout the following assumptions are being made:
  (1) The electronic state is orbitally nondegenerate
  (2) There are no thermally accessible electronically excited states
  (3) Hindered rotations indicated by low frequency modes are not
      treated as such but are treated as vibrations and this may
      cause some error
  (4) All equations used are the standard statistical mechanics
      equations for an ideal gas
  (5) All vibrations are strictly harmonic

freq.     138.82  E(vib)   ...       0.42 
freq.     161.00  E(vib)   ...       0.39 
freq.     373.50  E(vib)   ...       0.21 
freq.     389.22  E(vib)   ...       0.20 
freq.     450.19  E(vib)   ...       0.17 
freq.     549.11  E(vib)   ...       0.12 
freq.     549.23  E(vib)   ...       0.12 
freq.     616.22  E(vib)   ...       0.09 
freq.     677.42  E(vib)   ...       0.08 
freq.     747.13  E(vib)   ...       0.06 
freq.     749.65  E(vib)   ...       0.06 
freq.     822.05  E(vib)   ...       0.05 
freq.     901.74  E(vib)   ...       0.03 
freq.     921.24  E(vib)   ...       0.03 
freq.     943.74  E(vib)   ...       0.03 
freq.     985.12  E(vib)   ...       0.02 
freq.    1020.10  E(vib)   ...       0.02 
freq.    1073.57  E(vib)   ...       0.02 
freq.    1154.62  E(vib)   ...       0.01 
freq.    1166.34  E(vib)   ...       0.01 
freq.    1185.00  E(vib)   ...       0.01 
freq.    1296.10  E(vib)   ...       0.01 
freq.    1326.85  E(vib)   ...       0.01 
freq.    1429.98  E(vib)   ...       0.00 
freq.    1473.66  E(vib)   ...       0.00 
freq.    1560.89  E(vib)   ...       0.00 
freq.    1587.01  E(vib)   ...       0.00 
freq.    2229.67  E(vib)   ...       0.00 
freq.    3100.67  E(vib)   ...       0.00 
freq.    3110.75  E(vib)   ...       0.00 
freq.    3119.74  E(vib)   ...       0.00 
freq.    3129.12  E(vib)   ...       0.00 
freq.    3131.80  E(vib)   ...       0.00 

------------
INNER ENERGY
------------

The inner energy is: U= E(el) + E(ZPE) + E(vib) + E(rot) + E(trans)
    E(el)   - is the total energy from the electronic structure calculation
              = E(kin-el) + E(nuc-el) + E(el-el) + E(nuc-nuc)
    E(ZPE)  - the the zero temperature vibrational energy from the frequency calculation
    E(vib)  - the the finite temperature correction to E(ZPE) due to population
              of excited vibrational states
    E(rot)  - is the rotational thermal energy
    E(trans)- is the translational thermal energy

Summary of contributions to the inner energy U:
Electronic energy                ...   -324.52304018 Eh
Zero point energy                ...      0.09584543 Eh      60.14 kcal/mol
Thermal vibrational correction   ...      0.00347054 Eh       2.18 kcal/mol
Thermal rotational correction    ...      0.00141627 Eh       0.89 kcal/mol
Thermal translational correction ...      0.00141627 Eh       0.89 kcal/mol
-----------------------------------------------------------------------
Total thermal energy                   -324.42089166 Eh


Summary of corrections to the electronic energy:
(perhaps to be used in another calculation)
Total thermal correction                  0.00630308 Eh       3.96 kcal/mol
Non-thermal (ZPE) correction              0.09584543 Eh      60.14 kcal/mol
-----------------------------------------------------------------------
Total correction                          0.10214851 Eh      64.10 kcal/mol


--------
ENTHALPY
--------

The enthalpy is H = U + kB*T
                kB is Boltzmann's constant
Total thermal energy              ...   -324.42089166 Eh 
Thermal Enthalpy correction       ...      0.00094421 Eh       0.59 kcal/mol
-----------------------------------------------------------------------
Total Enthalpy                    ...   -324.41994745 Eh


Note: Rotational entropy computed according to Herzberg 
Infrared and Raman Spectra, Chapter V,1, Van Nostrand Reinhold, 1945 
Point Group:  Cs, Symmetry Number:   1  
Rotational constants in cm-1:     0.186963     0.051004     0.040072 

Vibrational entropy computed according to the QRRHO of S. Grimme
Chem.Eur.J. 2012 18 9955 using a reference frequency of 100.0 cm-1


-------
ENTROPY
-------

The entropy contributions are T*S = T*(S(el)+S(vib)+S(rot)+S(trans))
     S(el)   - electronic entropy
     S(vib)  - vibrational entropy
     S(rot)  - rotational entropy
     S(trans)- translational entropy
The entropies will be listed as multiplied by the temperature to get
units of energy

Electronic entropy                ...      0.00000000 Eh      0.00 kcal/mol
Vibrational entropy               ...      0.00549936 Eh      3.45 kcal/mol
Rotational entropy                ...      0.01322605 Eh      8.30 kcal/mol
Translational entropy             ...      0.01891481 Eh     11.87 kcal/mol
-----------------------------------------------------------------------
Final entropy term                ...      0.03764021 Eh     23.62 kcal/mol

In case the symmetry of your molecule has not been determined correctly
or in case you have a reason to use a different symmetry number we print 
out the resulting rotational entropy values for sn=1,12:

 non-linear molecules -----------------------------------
|  sn= 1 | S(rot)=       0.01322605 Eh      8.30 kcal/mol|
|  sn= 2 | S(rot)=       0.01257159 Eh      7.89 kcal/mol|
|  sn= 3 | S(rot)=       0.01218876 Eh      7.65 kcal/mol|
|  sn= 4 | S(rot)=       0.01191713 Eh      7.48 kcal/mol|
|  sn= 5 | S(rot)=       0.01170645 Eh      7.35 kcal/mol|
|  sn= 6 | S(rot)=       0.01153430 Eh      7.24 kcal/mol|
|  sn= 7 | S(rot)=       0.01138876 Eh      7.15 kcal/mol|
|  sn= 8 | S(rot)=       0.01126268 Eh      7.07 kcal/mol|
|  sn= 9 | S(rot)=       0.01115147 Eh      7.00 kcal/mol|
|  sn=10 | S(rot)=       0.01105199 Eh      6.94 kcal/mol|
|  sn=11 | S(rot)=       0.01096200 Eh      6.88 kcal/mol|
|  sn=12 | S(rot)=       0.01087985 Eh      6.83 kcal/mol|
 linear molecules ---------------------------------------
|  Dinfh | S(rot)=       0.00836330 Eh      5.25 kcal/mol|
|  Cinfv | S(rot)=       0.00901776 Eh      5.66 kcal/mol|
 --------------------------------------------------------


-------------------
GIBBS FREE ENERGY
-------------------

The Gibbs free energy is G = H - T*S

Total enthalpy                    ...   -324.41994745 Eh 
Total entropy correction          ...     -0.03764021 Eh    -23.62 kcal/mol
-----------------------------------------------------------------------
Final Gibbs free energy         ...   -324.45758766 Eh

For completeness - the Gibbs free energy minus the electronic energy
G-E(el)                           ...      0.06545251 Eh     41.07 kcal/mol


Maximum memory used throughout the entire PROP-calculation: 56.3 MB

--------------------------------
SUGGESTED CITATIONS FOR THIS RUN
--------------------------------

Below you find a list of papers that are relevant to this ORCA run
We neither can nor want to force you to cite these papers, but we appreciate if you do
You receive ORCA, which is the product of decades of hard work by many enthusiastic individuals, for free
The only thing we kindly ask in return is that you cite our papers,
We deeply appreciate it, if you show your appreciation for ORCA by not just citing the generic ORCA reference.

Please note that relegating all ORCA citations to the supporting information does *not* help us.
SI sections are not indexed - citations you put there will not count into any citation statistics
But we need these citations in order to attract the funding resources that allow us to do what we are doing

Therefore, if you are a happy ORCA user, please consider citing a few of the papers listed below in the main body of your paper

In addition to the list printed below, the program has created the file job.bibtex that contains the list in bibtex format
You can import this file easily into all common literature databanks and citation aid programs


List of essential papers. We consider these as the minimum necessary citations

  1. Neese, F.
     Software update: the ORCA program system, version 6.0
     WIRES Comput. Molec. Sci. 2025 15(1), e70019
     doi.org/10.1002/wcms.7019

List of papers to cite with high priority. The work reported in these papers was absolutely
necessary for this run to complete.
Our perspective: the developers of density functionals and basis sets usually get cited in chemistry papers
Good! But without the algorithms to do something with them, the functionals or basis sets would not do anything.
Hence, in our opinion, the algorithm design and method developments papers are equally worthy of getting cited

  1. Neese, F.
     An improvement of the resolution of the identity approximation for the formation of the Coulomb matrix
     J. Comp. Chem. 2003 24(14), 1740-1747
     doi.org/10.1002/jcc.10318
  2. Bykov, D.; Petrenko, T.; Izsak, R.; Kossmann, S.; Becker, U.; Valeev, E.; Neese, F.
     Efficient implementation of the analytic second derivatives of Hartree-Fock and hybrid DFT energies: a detailed analysis of different approximations
     Molec. Phys. 2015 113 , 1961-1977
     doi.org/10.1080/00268976.2015.1025114
  3. Neese, F.
     The SHARK Integral Generation and Digestion System
     J. Comp. Chem. 2022 44(3), 381
     doi.org/10.1002/jcc.26942

List of suggested additional citations. These are papers that are important in the 'surrounding' of 
of this run, or papers that preceded the highly important papers. If you like your results we are grateful for a citation.

  1. Neese, F.
     The ORCA program system
     WIRES Comput. Molec. Sci. 2012 2(1), 73-78
     doi.org/10.1002/wcms.81
  2. Neese, F.
     Software update: the ORCA program system, version 4.0
     WIRES Comput. Molec. Sci. 2018 8(1), 1-6
     doi.org/10.1002/wcms.1327
  3. Neese, F.; Wennmohs, F.; Becker, U.; Riplinger, C.
     The ORCA quantum chemistry program package
     J. Chem. Phys. 2020 152(22), 224108
     doi.org/10.1063/5.0004608
  4. Neese, F.
     Software update: The ORCA program system—Version 5.0
     WIRES Comput. Molec. Sci. 2022 12(1), e1606
     doi.org/10.1002/wcms.1606

List of optional additional citations

  1. Neese, F.
     Approximate second-order SCF convergence for spin unrestricted wavefunctions
     Chem. Phys. Lett. 2000 325(1-3), 93-98
     doi.org/10.1016/s0009-2614(00)00662-x

Timings for individual modules:

Sum of individual times          ...      168.917 sec (=   2.815 min)
Startup calculation              ...        0.757 sec (=   0.013 min)   0.4 %
SCF iterations                   ...       12.385 sec (=   0.206 min)   7.3 %
Property integrals               ...       86.134 sec (=   1.436 min)  51.0 %
SCF Response                     ...       29.195 sec (=   0.487 min)  17.3 %
Property calculations            ...       36.848 sec (=   0.614 min)  21.8 %
SCF Gradient evaluation          ...        3.592 sec (=   0.060 min)   2.1 %
Geometry relaxation              ...        0.006 sec (=   0.000 min)   0.0 %
                             ****ORCA TERMINATED NORMALLY****
TOTAL RUN TIME: 0 days 0 hours 2 minutes 49 seconds 50 msec
