
                                 *****************
                                 * O   R   C   A *
                                 *****************

                                            #,                                       
                                            ###                                      
                                            ####                                     
                                            #####                                    
                                            ######                                   
                                           ########,                                 
                                     ,,################,,,,,                         
                               ,,#################################,,                 
                          ,,##########################################,,             
                       ,#########################################, ''#####,          
                    ,#############################################,,   '####,        
                  ,##################################################,,,,####,       
                ,###########''''           ''''###############################       
              ,#####''   ,,,,##########,,,,          '''####'''          '####       
            ,##' ,,,,###########################,,,                        '##       
           ' ,,###''''                  '''############,,,                           
         ,,##''                                '''############,,,,        ,,,,,,###''
      ,#''                                            '''#######################'''  
     '                                                          ''''####''''         
             ,#######,   #######,   ,#######,      ##                                
            ,#'     '#,  ##    ##  ,#'     '#,    #''#        ,####,    ,#,          
            ##       ##  ##   ,#'  ##            #'  '#       #'       ,# #          
            ##       ##  #######   ##           ,######,      #####,      #          
            '#,     ,#'  ##    ##  '#,     ,#' ,#      #,     #,   #      #          
             '#######'   ##     ##  '#######'  #'      '#     '####' #    #          



                #########################################################
                #                        -***-                          #
                #          Department of theory and spectroscopy        #
                #                                                       #
                #                      Frank Neese                      #
                #                                                       #
                #     Directorship, Architecture, Infrastructure        #
                #                    SHARK, DRIVERS                     #
                #        Core code/Algorithms in most modules           #
                #                                                       #
                #        Max Planck Institute fuer Kohlenforschung      #
                #                Kaiser Wilhelm Platz 1                 #
                #                 D-45470 Muelheim/Ruhr                 #
                #                      Germany                          #
                #                                                       #
                #                  All rights reserved                  #
                #                        -***-                          #
                #########################################################


                         Program Version 6.1.0  -  RELEASE   -
                                (GIT: $679e74b7b5$)
                          ($2025-06-10 18:02:51 +0200$)


 With contributions from (in alphabetic order):
[Max-Planck-Institut fuer Kohlenforschung]                               
  Daniel Aravena         : Magnetic Suceptibility                        
  Michael Atanasov       : Ab Initio Ligand Field Theory (pilot matlab implementation)
  Alexander A. Auer      : GIAO ZORA, VPT2 properties, NMR spectrum      
  Ute Becker             : All parallelization in ORCA, NUMFREQ, NUMCALC 
  Giovanni Bistoni       : ED, misc. LED, open-shell LED, HFLD           
  Dmytro Bykov           : pre 5.0 version of the SCF Hessian            
  Marcos Casanova-Páez   : Triplet and SCS-CIS(D). UHF-(DLPNO)-IP/EA/STEOM-CCSD. UHF-CVS-IP/STEOM-CCSD   
  Vijay G. Chilkuri      : MRCI spin determinant printing, contributions to CSF-ICE 
  Pauline Colinet        : FMM embedding                                 
  Dipayan Datta          : RHF DLPNO-CCSD density                        
  Achintya Kumar Dutta   : EOM-CC, STEOM-CC                              
  Nicolas Foglia         : Exact transition moments, OPA infrastructure, MCD improvements    
  Dmitry Ganyushin       : Spin-Orbit,Spin-Spin,Magnetic field MRCI      
  Miquel Garcia-Rates    : C-PCM and meta-GGA Hessian, CCSD/C-PCM, Gaussian charge scheme 
  Tiago L. C. Gouveia    : GS-ROHF, GS-ROCIS                             
  Yang Guo               : DLPNO-NEVPT2, F12-NEVPT2, CIM, IAO-localization        
  Andreas Hansen         : Spin unrestricted coupled pair/coupled cluster methods 
  Ingolf Harden          : AUTO-CI MPn and infrastructure                
  Benjamin Helmich-Paris : MC-RPA, TRAH-(SCF,CASSCF), AVAS, COSX integrals, SCF dyn. polar., MC-PDFT, srDFT 
  Lee Huntington         : MR-EOM, pCC                                   
  Robert Izsak           : Overlap fitted RIJCOSX, COSX-SCS-MP3, EOM     
  Riya Kayal             : Wick's Theorem for AUTO-CI, AUTO-CI UHF-CCSDT 
  Emily Kempfer          : AUTO-CI RHF CISDT and CCSDT, approximate NEVPT4
  Christian Kollmar      : KDIIS, OOCD, Brueckner-CCSD(T), CCSD density, CASPT2, CASPT2-K, improved NEVPT2 
  Axel Koslowski         : Symmetry handling                             
  Simone Kossmann        : meta-GGA functionals, TD-DFT gradient, OOMP2, (MP2 Hessian; deprecated post 5.0) 
  Lucas Lang             : DCDCAS, Hyperfine gauge corrections, ICE-SOC+SSC
  Marvin Lechner         : AUTO-CI (C++ implementation), FIC-MRCC        
  Spencer Leger          : CASSCF response                               
  Dagmar Lenk            : GEPOL surface, SMD, ORCA-2-JSON               
  Dimitrios Liakos       : Extrapolation schemes; Compound Job, Property file
  Dimitrios Manganas     : Further ROCIS development; embedding schemes. LFT, Crystal Embedding 
  Dimitrios Pantazis     : SARC Basis sets                               
  Anastasios Papadopoulos: AUTO-CI, single reference methods and gradients 
  Taras Petrenko         : pre 6.0 DFT Hessian and TD-DFT gradient,  ECA, NRVS 
  Petra Pikulova         : Analytic Raman intensities                    
  Peter Pinski           : DLPNO-MP2, DLPNO-MP2 Gradient                 
  Shashank Vittal Rao    : ES-AILFT, MagRelax                            
  Christoph Reimann      : Effective Core Potentials                     
  Marius Retegan         : Local ZFS, SOC                                
  Christoph Riplinger    : Optimizer, TS searches, QM/MM, DLPNO-CCSD(T), (RO)-DLPNO pert. Triples 
  Michael Roemelt        : Original ROCIS implementation, recursive CI coupling coefficients
  Masaaki Saitow         : Open-shell DLPNO-CCSD energy and density      
  Barbara Sandhoefer     : DKH picture change effects                    
  Yorick L. A. Schmerwitz: GMF and freeze-and-release deltaSCF, NEB S-IDPP initial path                    
  Kantharuban Sivalingam : CASSCF convergence/infrastructure, NEVPT2, NEVPT3, NEVPT4(SD), FIC-MRCI and CEPA variants
  Bernardo de Souza      : ESD, SOC TD-DFT                               
  Georgi L. Stoychev     : AutoAux, RI-MP2 NMR, DLPNO-MP2 response, X2C  
  Van Anh Tran           : RI-MP2 g-tensors                              
  Willem Van den Heuvel  : Paramagnetic NMR                              
  Zikuan Wang            : NOTCH, Electric field optimization            
  Frank Wennmohs         : Technical directorship and infrastructure     
  Hang Xu                : AUTO-CI-Response properties                   
                                                                         
[FACCTs GmbH]                                                            
  Markus Bursch, Nicolas Foglia, Miquel Garcia-Rates, Ingolf Harden, Hagen Neugebauer, Anastasios Papadopoulos, 
  Christoph Riplinger, Bernardo de Souza, Georgi L. Stoychev                                                    
                                                                 
  APM, various basis sets, CI-OPT, improved COSX, DLPNO-Multilevel,           
  DOCKER, DRACO, updates on ESD, Fragmentator, GOAT, IRC, LR-CPCM, L-BFGS, MBIS, meta-GGA TD-DFT gradient, ML-optimized integration grids, 
  MM, NACMEs, nearIR, NEB, NEB-TS, NL-DFT gradient (VV10), 2- and 3-layer-ONIOM, interface openCOSMO-RS, QMMM,   
  Crystal-QMMM, RESP, rigid body optimization, SF, symmetry and pop. for TD-DFT, various functionals, SOLVATOR                                   
                                                                         
[Other institutions]                                                     
  V. Asgeirsson          : NEB                                           
  Christoph Bannwarth    : sTDA-DFT, sTD-DFT, PBEh-3c, B97-3c, D3        
  Giovanni Bistoni       : ETS/NOCV, ADLD/ADEX, COVALED                  
  Martin Brehm           : Molecular dynamics                            
  Ronald Cardenas        : ETS/NOCV                                      
  Martina Colucci        : COVALED                                       
  Sebastian Ehlert       : rSCAN, r2SCAN, r2SCAN-3c, D4, dhf basis sets  
  Marvin Friede          : D4 for Fr, Ra, Ac-Lr                          
  Lars Goerigk           : TD-DFT with DH, B97 family of functionals     
  Stefan Grimme          : VdW corrections, initial TS optimization, DFT functionals, gCP, sTDA/sTD-DF 
  Waldemar Hujo          : DFT-NL                                        
  H. Jonsson             : NEB                                           
  Holger Kruse           : gCP                                           
  Marcel Mueller         : wB97X-3c, vDZP basis set                      
  Hagen Neugebauer       : wr2SCAN, Native XTB                           
  Gianluca Regni         : ADLD/ADEX                                     
  Tobias Risthaus        : pre 6.0 range-separated hybrid DFT and stability analysis
  Lukas Wittmann         : regularized MP2, r2SCAN double-hybrids, wr2SCAN        
                                                                         
We gratefully acknowledge several colleagues who have allowed us to      
interface, adapt or use parts of their codes:                            
  Ed Valeev, F. Pavosevic, A. Kumar             : LibInt (2-el integral package), F12 methods 
  Garnet Chan, S. Sharma, J. Yang, R. Olivares  : DMRG                   
  Ulf Ekstrom                                   : XCFun DFT Library      
  Mihaly Kallay                                 : mrcc  (arbitrary order and MRCC methods)
  Frank Weinhold                                : gennbo (NPA and NBO analysis)           
  Simon Mueller                                 : openCOSMO-RS                            
  Christopher J. Cramer and Donald G. Truhlar   : smd solvation model                     
  S Lehtola, MJT Oliveira, MAL Marques          : LibXC Library                           
  Liviu Ungur et al                             : ANISO software                          


 Your calculation uses the libint2 library for the computation of 2-el integrals
 For citations please refer to: http://libint.valeyev.net

 Your ORCA version has been built with support for libXC version: 7.0.0
 For citations please refer to: https://libxc.gitlab.io

 This ORCA versions uses:
   CBLAS   interface :  Fast vector & matrix operations
   LAPACKE interface :  Fast linear algebra routines
   SCALAPACK package :  Parallel linear algebra routines
   Shared memory     :  Shared parallel matrices


  ***********************************
  * Starting time: Wed Jul  9 18:15:45 2025
  * Host name:     MacBook-Air-3.local
  * Process ID:    75320
  * Working dir.:  /Users/blenl/Desktop/Folders/Projects/DFT2/others/fluorine
  ***********************************

NOTE: MaxCore=16384 MB was set to SCF,MP2,MDCI,CIPSI,MRCI,RASCI and CIS
      => If you want to overwrite this, your respective input block should be placed after the MaxCore statement
Warning: RI is on but no J-basis has been assigned. Assigning Def2/J (nothing to worry about!)
================================================================================

----- Orbital basis set information -----
Your calculation utilizes the basis: def2-TZVP
   F. Weigend and R. Ahlrichs, Phys. Chem. Chem. Phys. 7, 3297 (2005).

----- AuxJ basis set information -----
Your calculation utilizes the auxiliary basis: def2/J
   H-Rn: F. Weigend, Phys. Chem. Chem. Phys. 8, 1057 (2006).
   Fr-Lr: K. Eichkorn, F. Weigend, O. Treutler, R. Ahlrichs; Theor. Chem. Acc. 97, 119 (1997).

================================================================================
                                        WARNINGS
                       Please study these warnings very carefully!
================================================================================


================================================================================
                                       INPUT FILE
================================================================================
NAME = job.inp
|  1> # avogadro generated ORCA file
|  2> # C6H11F | Geometry Optimization | revPBE/def2-TZVP
|  3> # 
|  4> ! SP revPBE def2-TZVP 
|  5> 
|  6> %maxcore 16384
|  7> 
|  8> %pal
|  9>    nprocs 1
| 10> end
| 11> %output
| 12>   Print[P_Basis] 2
| 13>   Print[P_MOs] 1
| 14> end
| 15> 
| 16> 
| 17> * xyz 0 1
| 18>    C     -4.257341    2.529246   -0.270542
| 19>    C     -4.266955    1.062796    0.148204
| 20>    H     -1.732251    1.003864    1.380579
| 21>    H     -5.122990    0.546987   -0.301560
| 22>    C     -3.023265    3.257355    0.258693
| 23>    F     -2.996917   -0.905367    0.251218
| 24>    H     -4.277370    2.595732   -1.365334
| 25>    H     -5.163413    3.024299    0.096509
| 26>    C     -1.731151    2.544611   -0.135279
| 27>    H     -3.009061    4.284213   -0.123637
| 28>    H     -3.082187    3.324239    1.352123
| 29>    C     -1.748676    1.078990    0.286061
| 30>    H     -1.596118    2.609868   -1.221993
| 31>    H     -0.875177    3.051272    0.324418
| 32>    C     -2.977446    0.358383   -0.252658
| 33>    H     -0.841968    0.573601   -0.065422
| 34>    H     -4.402833    0.984471    1.234144
| 35>    H     -2.917152    0.274958   -1.343662
| 36> *
| 37> 
| 38> 
| 39> 
| 40>                          ****END OF INPUT****
================================================================================

                       ****************************
                       * Single Point Calculation *
                       ****************************

---------------------------------
CARTESIAN COORDINATES (ANGSTROEM)
---------------------------------
  C     -4.257341    2.529246   -0.270542
  C     -4.266955    1.062796    0.148204
  H     -1.732251    1.003864    1.380579
  H     -5.122990    0.546987   -0.301560
  C     -3.023265    3.257355    0.258693
  F     -2.996917   -0.905367    0.251218
  H     -4.277370    2.595732   -1.365334
  H     -5.163413    3.024299    0.096509
  C     -1.731151    2.544611   -0.135279
  H     -3.009061    4.284213   -0.123637
  H     -3.082187    3.324239    1.352123
  C     -1.748676    1.078990    0.286061
  H     -1.596118    2.609868   -1.221993
  H     -0.875177    3.051272    0.324418
  C     -2.977446    0.358383   -0.252658
  H     -0.841968    0.573601   -0.065422
  H     -4.402833    0.984471    1.234144
  H     -2.917152    0.274958   -1.343662

----------------------------
CARTESIAN COORDINATES (A.U.)
----------------------------
  NO LB      ZA    FRAG     MASS         X           Y           Z
   0 C     6.0000    0    12.011   -8.045209    4.779582   -0.511250
   1 C     6.0000    0    12.011   -8.063376    2.008393    0.280065
   2 H     1.0000    0     1.008   -3.273480    1.897028    2.608916
   3 H     1.0000    0     1.008   -9.681048    1.033656   -0.569866
   4 C     6.0000    0    12.011   -5.713143    6.155509    0.488859
   5 F     9.0000    0    18.998   -5.663352   -1.710896    0.474733
   6 H     1.0000    0     1.008   -8.083058    4.905223   -2.580107
   7 H     1.0000    0     1.008   -9.757436    5.715097    0.182376
   8 C     6.0000    0    12.011   -3.271401    4.808618   -0.255640
   9 H     1.0000    0     1.008   -5.686301    8.095989   -0.233640
  10 H     1.0000    0     1.008   -5.824489    6.281901    2.555142
  11 C     6.0000    0    12.011   -3.304519    2.038996    0.540577
  12 H     1.0000    0     1.008   -3.016226    4.931936   -2.309232
  13 H     1.0000    0     1.008   -1.653845    5.766068    0.613061
  14 C     6.0000    0    12.011   -5.626558    0.677246   -0.477454
  15 H     1.0000    0     1.008   -1.591089    1.083949   -0.123630
  16 H     1.0000    0     1.008   -8.320149    1.860381    2.332194
  17 H     1.0000    0     1.008   -5.512618    0.519595   -2.539153

--------------------------------
INTERNAL COORDINATES (ANGSTROEM)
--------------------------------
 C      0   0   0     0.000000000000     0.00000000     0.00000000
 C      1   0   0     1.525095486851     0.00000000     0.00000000
 H      2   1   0     2.819032722205    97.72768068     0.00000000
 H      2   1   3     1.095966469105   110.16900249   189.18655736
 C      1   2   3     1.527473723140   111.61118292   354.79238021
 F      2   1   3     2.344626622772   144.66704768   316.26969008
 H      1   2   3     1.096991828730   109.40124506   115.97129984
 H      1   2   3     1.095796686705   109.70752324   233.02215334
 C      5   1   2     1.527342965845   111.81892527    53.82546787
 H      5   1   2     1.095817199482   109.64947448   175.67091960
 H      5   1   2     1.097057170999   109.32950932   292.61038622
 C      3   2   1     1.097216181445    63.19351649   288.38822479
 H      9   5   1     1.097013994867   109.38404487    67.24141126
 H      9   5   1     1.095772873093   109.68614468   184.27768380
 C      6   2   1     1.360637426252    37.98418862   351.31379770
 H     12   3   2     1.095936922397   106.01961042   210.68228476
 H      2   1   3     1.097207054347   109.94830998    72.70344846
 H     15   6   2     1.095848906135   107.38351825   240.92160118

---------------------------
INTERNAL COORDINATES (A.U.)
---------------------------
 C      0   0   0     0.000000000000     0.00000000     0.00000000
 C      1   0   0     2.882012798227     0.00000000     0.00000000
 H      2   1   0     5.327199807531    97.72768068     0.00000000
 H      2   1   3     2.071076478569   110.16900249   189.18655736
 C      1   2   3     2.886507013495   111.61118292   354.79238021
 F      2   1   3     4.430702203339   144.66704768   316.26969008
 H      1   2   3     2.073014127450   109.40124506   115.97129984
 H      1   2   3     2.070755636331   109.70752324   233.02215334
 C      5   1   2     2.886259918018   111.81892527    53.82546787
 H      5   1   2     2.070794399861   109.64947448   175.67091960
 H      5   1   2     2.073137606442   109.32950932   292.61038622
 C      3   2   1     2.073438092638    63.19351649   288.38822479
 H      9   5   1     2.073056015377   109.38404487    67.24141126
 H      9   5   1     2.070710635125   109.68614468   184.27768380
 C      6   2   1     2.571232103179    37.98418862   351.31379770
 H     12   3   2     2.071020643384   106.01961042   210.68228476
 H      2   1   3     2.073420844922   109.94830998    72.70344846
 H     15   6   2     2.070854316752   107.38351825   240.92160118

---------------------
BASIS SET INFORMATION
---------------------
There are 3 groups of distinct atoms

 Group   1 Type C   : 11s6p2d1f contracted to 5s3p2d1f pattern {62111/411/11/1}
 Group   2 Type H   : 5s1p contracted to 3s1p pattern {311/1}
 Group   3 Type F   : 11s6p2d1f contracted to 5s3p2d1f pattern {62111/411/11/1}

Atom   0C    basis set group =>   1
Atom   1C    basis set group =>   1
Atom   2H    basis set group =>   2
Atom   3H    basis set group =>   2
Atom   4C    basis set group =>   1
Atom   5F    basis set group =>   3
Atom   6H    basis set group =>   2
Atom   7H    basis set group =>   2
Atom   8C    basis set group =>   1
Atom   9H    basis set group =>   2
Atom  10H    basis set group =>   2
Atom  11C    basis set group =>   1
Atom  12H    basis set group =>   2
Atom  13H    basis set group =>   2
Atom  14C    basis set group =>   1
Atom  15H    basis set group =>   2
Atom  16H    basis set group =>   2
Atom  17H    basis set group =>   2

-------------------------
BASIS SET IN INPUT FORMAT
-------------------------

 # Basis set for element : H 
 NewGTO H 
 S 3 
   1      34.0613410000      0.0254393072
   2       5.1235746000      0.1900859489
   3       1.1646626000      0.8524411301
 S 1 
   1       0.3272304100      1.0000000000
 S 1 
   1       0.1030724100      1.0000000000
 P 1 
   1       0.8000000000      1.0000000000
  end;

 # Basis set for element : C 
 NewGTO C 
 S 6 
   1   13575.3496820000      0.0006064549
   2    2035.2333680000      0.0046979088
   3     463.2256235900      0.0243324776
   4     131.2001959800      0.0973999683
   5      42.8530158910      0.3019558425
   6      15.5841857660      0.6623360915
 S 2 
   1       6.2067138508      0.6559530854
   2       2.5764896527      0.3758563329
 S 1 
   1       0.5769633942      1.0000000000
 S 1 
   1       0.2297283136      1.0000000000
 S 1 
   1       0.0951644400      1.0000000000
 P 4 
   1      34.6972322440      0.0113272200
   2       7.9582622826      0.0761696592
   3       2.3780826883      0.3019225220
   4       0.8143320818      0.7278502735
 P 1 
   1       0.2888754725      1.0000000000
 P 1 
   1       0.1005682367      1.0000000000
 D 1 
   1       1.0970000000      1.0000000000
 D 1 
   1       0.3180000000      1.0000000000
 F 1 
   1       0.7610000000      1.0000000000
  end;

 # Basis set for element : F 
 NewGTO F 
 S 6 
   1   35479.1004410000      0.0005618498
   2    5318.4728983000      0.0043551975
   3    1210.4810975000      0.0226182470
   4     342.8551814000      0.0914030552
   5     112.0194318100      0.2911687068
   6      40.7147402480      0.6777270857
 S 2 
   1      16.0396781110      0.6329641788
   2       6.5038186740      0.4013647573
 S 1 
   1       1.5440477509      1.0000000000
 S 1 
   1       0.6122345286      1.0000000000
 S 1 
   1       0.2402797970      1.0000000000
 P 4 
   1      80.2339004830      0.0123213451
   2      18.5940107430      0.0857133953
   3       5.6867902653      0.3263310551
   4       1.9511006294      0.6997111464
 P 1 
   1       0.6697021130      1.0000000000
 P 1 
   1       0.2165130041      1.0000000000
 D 1 
   1       3.1070000000      1.0000000000
 D 1 
   1       0.8550000000      1.0000000000
 F 1 
   1       1.9170000000      1.0000000000
  end;

---------------------------------
AUXILIARY/J BASIS SET INFORMATION
---------------------------------
There are 3 groups of distinct atoms

 Group   1 Type C   : 12s5p4d2f1g contracted to 6s4p3d1f1g pattern {711111/2111/211/2/1}
 Group   2 Type H   : 5s2p1d contracted to 3s1p1d pattern {311/2/1}
 Group   3 Type F   : 12s5p4d2f1g contracted to 6s4p3d1f1g pattern {711111/2111/211/2/1}

Atom   0C    basis set group =>   1
Atom   1C    basis set group =>   1
Atom   2H    basis set group =>   2
Atom   3H    basis set group =>   2
Atom   4C    basis set group =>   1
Atom   5F    basis set group =>   3
Atom   6H    basis set group =>   2
Atom   7H    basis set group =>   2
Atom   8C    basis set group =>   1
Atom   9H    basis set group =>   2
Atom  10H    basis set group =>   2
Atom  11C    basis set group =>   1
Atom  12H    basis set group =>   2
Atom  13H    basis set group =>   2
Atom  14C    basis set group =>   1
Atom  15H    basis set group =>   2
Atom  16H    basis set group =>   2
Atom  17H    basis set group =>   2

-------------------------------------
AUXILIARY/J BASIS SET IN INPUT FORMAT
-------------------------------------

 # Auxiliary/J basis set for element : H 
 NewAuxJGTO H 
 S 3 
   1      15.6752927000      0.1007184237
   2       3.6063578000      0.3404257499
   3       1.2080016000      0.6491996172
 S 1 
   1       0.4726794000      1.0000000000
 S 1 
   1       0.2018100000      1.0000000000
 P 2 
   1       2.0281365000      0.5596620919
   2       0.5358730000      0.5596620919
 D 1 
   1       2.2165124000      1.0000000000
  end;

 # Auxiliary/J basis set for element : C 
 NewAuxJGTO C 
 S 7 
   1    1861.0916331000      0.0134602335
   2     642.9939764000      0.0299160374
   3     235.1105725000      0.1008649584
   4      90.7028894000      0.2370970548
   5      36.7794552000      0.3924037254
   6      15.6046273000      0.3195862154
   7       6.8907294000      0.0530104441
 S 1 
   1       3.1478850000     -1.0000000000
 S 1 
   1       1.4777287000      1.0000000000
 S 1 
   1       0.7076466000      1.0000000000
 S 1 
   1       0.3430122000      1.0000000000
 S 1 
   1       0.1669453000      1.0000000000
 P 2 
   1      13.5472892000     -0.6769313712
   2       5.4669419000     -0.3779500978
 P 1 
   1       2.1751721000      1.0000000000
 P 1 
   1       0.8582194000      1.0000000000
 P 1 
   1       0.3376720000      1.0000000000
 D 2 
   1       5.9287253000     -0.3533329857
   2       1.9809209000     -0.7456525731
 D 1 
   1       0.8055417000     -1.0000000000
 D 1 
   1       0.3531244000     -1.0000000000
 F 2 
   1       1.6755626000      0.6311076882
   2       0.5997536000      0.4968166032
 G 1 
   1       1.0024600000     -1.0000000000
  end;

 # Auxiliary/J basis set for element : F 
 NewAuxJGTO F 
 S 7 
   1    3514.9201549000      0.0176189594
   2    1231.2458815000      0.0358663858
   3     454.1367336000      0.1239867649
   4     175.8376258000      0.2758620517
   5      71.2081775000      0.4252764982
   6      30.0316883000      0.2651963387
   7      13.1259023000     -0.0078514564
 S 1 
   1       5.9126861000     -1.0000000000
 S 1 
   1       2.7284431000      1.0000000000
 S 1 
   1       1.2813993000      1.0000000000
 S 1 
   1       0.6082793000      1.0000000000
 S 1 
   1       0.2897894000      1.0000000000
 P 2 
   1      49.3740409000     -0.8404235528
   2      13.4874956000     -0.2331250081
 P 1 
   1       3.9664900000      1.0000000000
 P 1 
   1       1.2226629000     -1.0000000000
 P 1 
   1       0.3830317000      1.0000000000
 D 2 
   1      29.9719140000     -0.2160273306
   2       6.7860915000     -0.8915140390
 D 1 
   1       1.8137313000     -1.0000000000
 D 1 
   1       0.5157840000     -1.0000000000
 F 2 
   1       2.8301877000      0.5762078303
   2       0.9155962000      0.5762078303
 G 1 
   1       1.6097500000     -1.0000000000
  end;

------------------------------------------------------------------------------
                             ORCA STARTUP CALCULATIONS
                           -- RI-GTO INTEGRALS CHOSEN --
------------------------------------------------------------------------------
------------------------------------------------------------------------------
                   ___                                                        
                  /   \      - P O W E R E D   B Y -                         
                 /     \                                                     
                 |  |  |   _    _      __       _____    __    __             
                 |  |  |  | |  | |    /  \     |  _  \  |  |  /  |          
                  \  \/   | |  | |   /    \    | | | |  |  | /  /          
                 / \  \   | |__| |  /  /\  \   | |_| |  |  |/  /          
                |  |  |   |  __  | /  /__\  \  |    /   |      \           
                |  |  |   | |  | | |   __   |  |    \   |  |\   \          
                \     /   | |  | | |  |  |  |  | |\  \  |  | \   \       
                 \___/    |_|  |_| |__|  |__|  |_| \__\ |__|  \__/        
                                                                              
                      - O R C A' S   B I G   F R I E N D -                    
                                      &                                       
                       - I N T E G R A L  F E E D E R -                       
                                                                              
 v1 FN, 2020, v2 2021, v3 2022-2024                                           
------------------------------------------------------------------------------


----------------------
SHARK INTEGRAL PACKAGE
----------------------

Number of atoms                             ...     18
Number of basis functions                   ...    283
Number of shells                            ...    121
Maximum angular momentum                    ...      3
Integral batch strategy                     ... SHARK/LIBINT Hybrid
RI-J (if used) integral strategy            ... SPLIT-RIJ (Revised 2003 algorithm where possible)
Printlevel                                  ...      1
Contraction scheme used                     ... SEGMENTED contraction
Prescreening option                         ... SCHWARTZ
   Thresh                                   ... 1.000e-10
   Tcut                                     ... 1.000e-11
   Tpresel                                  ... 1.000e-11 
Coulomb Range Separation                    ... NOT USED
Exchange Range Separation                   ... NOT USED
Multipole approximations                    ... NOT USED
Finite Nucleus Model                        ... NOT USED
CABS basis                                  ... NOT available
Auxiliary Coulomb fitting basis             ... AVAILABLE
   # of basis functions in Aux-J            ...    464
   # of shells in Aux-J                     ...    160
   Maximum angular momentum in Aux-J        ...      4
Auxiliary J/K fitting basis                 ... NOT available
Auxiliary Correlation fitting basis         ... NOT available
Auxiliary 'external' fitting basis          ... NOT available

Checking pre-screening integrals            ... done (  0.0 sec) Dimension = 121
   => SHARK Basis and OBASIS are compatible. Storing Pre-screening
Shell pair information
Shell pair cut-off parameter TPreSel        ...   1.0e-11
Total number of shell pairs                 ...      7381
Shell pairs after pre-screening             ...      6976
Total number of primitive shell pairs       ...     21508
Primitive shell pairs kept                  ...     15700
          la=0 lb=0:   2154 shell pairs
          la=1 lb=0:   2070 shell pairs
          la=1 lb=1:    518 shell pairs
          la=2 lb=0:    904 shell pairs
          la=2 lb=1:    435 shell pairs
          la=2 lb=2:    102 shell pairs
          la=3 lb=0:    455 shell pairs
          la=3 lb=1:    216 shell pairs
          la=3 lb=2:     94 shell pairs
          la=3 lb=3:     28 shell pairs

Checking whether 4 symmetric matrices of dimension 283 fit in memory
:Max Core in MB      =  16384.00
 MB in use           =     10.17
 MB left             =  16373.83
 MB needed           =      1.23
 Data fit in memory  = YES
Calculating RI/J V-Matrix + Cholesky decomp.... done (  0.0 sec)
Calculating Nuclear repulsion               ... done (  0.0 sec) ENN=    329.927861100271 Eh

Diagonalization of the overlap matrix:
Smallest eigenvalue                        ... 1.255e-04
Time for diagonalization                   ...    0.004 sec
Threshold for overlap eigenvalues          ... 1.000e-07
Number of eigenvalues below threshold      ... 0
Time for construction of square roots      ...    0.001 sec
Total time needed                          ...    0.005 sec

-------------------
DFT GRID GENERATION
-------------------

General Integration Accuracy     IntAcc      ... 4.388
Radial Grid Type                 RadialGrid  ... OptM3 with GC (2021)
Angular Grid (max. ang.)         AngularGrid ... 4 (Lebedev-302)
Angular grid pruning method      GridPruning ... 4 (adaptive)
Weight generation scheme         WeightScheme... mBecke (2022)
Basis function cutoff            BFCut       ... 1.0000e-10
Integration weight cutoff        WCut        ... 1.0000e-14
Partially contracted basis set               ... off
Rotationally invariant grid construction     ... off
Angular grids for H and He will be reduced by one unit

Total number of grid points                  ...    77038
Total number of batches                      ...     1215
Average number of points per batch           ...       63
Average number of grid points per atom       ...     4280
Grids setup in   0.3 sec
Initializing property integral containers    ... done (  0.0 sec)

SHARK setup successfully completed in   0.4 seconds

Maximum memory used throughout the entire STARTUP-calculation: 43.5 MB
-------------------------------------------------------------------------------
                                 ORCA GUESS
                   Start orbitals & Density for SCF / CASSCF
-------------------------------------------------------------------------------

------------
SCF SETTINGS
------------
Hamiltonian:
 Density Functional     Method          .... DFT(GTOs)
 Exchange Functional    Exchange        .... PBE
   PBE kappa parameter   XKappa         ....  1.245000
   PBE mue parameter    XMuePBE         ....  0.219520
 Correlation Functional Correlation     .... PBE
   PBE beta parameter  CBetaPBE         ....  0.066725
 LDA part of GGA corr.  LDAOpt          .... PW91-LDA
 Gradients option       PostSCFGGA      .... off
   NL short-range parameter             ....  3.700000
 RI-approximation to the Coulomb term is turned on
   Number of AuxJ basis functions       .... 464


General Settings:
 Integral files         IntName         .... job
 Hartree-Fock type      HFTyp           .... RHF
 Total Charge           Charge          ....    0
 Multiplicity           Mult            ....    1
 Number of Electrons    NEL             ....   56
 Basis Dimension        Dim             ....  283
 Nuclear Repulsion      ENuc            ....    329.9278611003 Eh

Convergence Acceleration:
 AO-DIIS                CNVDIIS         .... on
   Start iteration      DIISMaxIt       ....    12
   Startup error        DIISStart       ....  0.200000
   # of expansion vecs  DIISMaxEq       ....     5
   Bias factor          DIISBfac        ....   1.050
   Max. coefficient     DIISMaxC        ....  10.000
 MO-DIIS                CNVKDIIS        .... off
 Trust-Rad. Augm. Hess. CNVTRAH         .... auto
   Auto Start mean grad. ratio tolernc. ....  1.125000
   Auto Start start iteration           ....    50
   Auto Start num. interpolation iter.  ....    10
   Max. Number of Micro iterations      ....    24
   Max. Number of Macro iterations      .... Maxiter - #DIIS iter
   Number of Davidson start vectors     ....     2
   Converg. threshold    (grad. norm)   ....   5.000e-05
   Grad. Scal. Fac. for Micro threshold ....   0.100
   Minimum threshold for Micro iter.    ....   1.000e-02
   NR start threshold (gradient norm)   ....   1.000e-04
   Initial trust radius                 ....   0.400
   Minimum AH scaling param. (alpha)    ....   1.000
   Maximum AH scaling param. (alpha)    .... 1000.000
   Quad. conv. algorithm                .... NR
   White noise on init. David. guess    .... on
   Maximum white noise                  ....   0.010
   Pseudo random numbers                .... off
   Inactive MOs                         .... canonical
   Orbital update algorithm             .... Taylor
   Preconditioner                       .... Diag
   Full preconditioner red. dimension   ....   250
 SOSCF                 CNVSOSCF           .... on
   Start iteration     SOSCFMaxIt         ....   150
   Startup grad/error  SOSCFStart         ....  0.003300
   Hessian update      SOSCFHessUp        .... L-BFGS
   Autom. constraints  SOSCFAutoConstrain .... off
 Level Shifting         CNVShift        .... on
   Level shift para.    LevelShift      ....    0.2500
   Turn off err/grad.   ShiftErr        ....    0.0010
 Zerner damping         CNVZerner       .... off
 Static damping         CNVDamp         .... on
   Fraction old density DampFac         ....    0.7000
   Max. Damping (<1)    DampMax         ....    0.9800
   Min. Damping (>=0)   DampMin         ....    0.0000
   Turn off err/grad.   DampErr         ....    0.1000

SCF Procedure:
 Maximum # iterations   MaxIter         ....   125
 SCF integral mode      SCFMode         .... Direct
   Integral package                     .... SHARK and LIBINT hybrid scheme
 Reset frequency        DirectResetFreq ....    20
 Integral Threshold     Thresh          ....  1.000e-10 Eh
 Primitive CutOff       TCut            ....  1.000e-11 Eh

Convergence Tolerance:
 Convergence Check Mode ConvCheckMode   .... Total+1el-Energy
 Convergence forced     ConvForced      .... 0
 Energy Change          TolE            ....  1.000e-06 Eh
 1-El. energy change                    ....  1.000e-03 Eh
 Orbital Gradient       TolG            ....  5.000e-05
 Orbital Rotation angle TolX            ....  5.000e-05
 DIIS Error             TolErr          ....  1.000e-06

------------------------------
INITIAL GUESS: MODEL POTENTIAL
------------------------------
Loading Hartree-Fock densities                     ... done
Calculating cut-offs                               ... done
Initializing the effective Hamiltonian             ... done
Setting up the integral package (SHARK)            ... done
Starting the Coulomb interaction                   ... done (   0.1 sec)
Making the grid                                    ... done (   0.1 sec)
Mapping shells                                     ... done
Starting the XC term evaluation                    ... done (   0.2 sec)
  promolecular density results
     # of electrons  =     55.994317006
     EX              =    -44.259362889
     EC              =     -1.865219357
     EX+EC           =    -46.124582246
Transforming the Hamiltonian                       ... done (   0.0 sec)
Diagonalizing the Hamiltonian                      ... done (   0.0 sec)
Back transforming the eigenvectors                 ... done (   0.0 sec)
Now organizing SCF variables                       ... done
                      ------------------
                      INITIAL GUESS DONE (   0.4 sec)
                      ------------------
             **** ENERGY FILE WAS UPDATED (job.en.tmp) ****
Finished Guess after   0.4 sec
Maximum memory used throughout the entire GUESS-calculation: 23.9 MB

-------------------------------------------------------------------------------------------
                                      ORCA LEAN-SCF
                              memory conserving SCF solver
-------------------------------------------------------------------------------------------

----------------------------------------D-I-I-S--------------------------------------------
Iteration    Energy (Eh)           Delta-E    RMSDP     MaxDP     DIISErr   Damp  Time(sec)
-------------------------------------------------------------------------------------------
               ***  Starting incremental Fock matrix formation  ***
    1    -334.9565963654808343     0.00e+00  1.82e-03  7.86e-02  1.46e-01  0.700   0.9
    2    -335.0419030501236080    -8.53e-02  1.61e-03  8.10e-02  6.61e-02  0.700   0.8
                               ***Turning on AO-DIIS***
    3    -335.0708340959136535    -2.89e-02  7.40e-04  3.52e-02  1.95e-02  0.700   0.8
    4    -335.0881480090932314    -1.73e-02  1.02e-03  3.62e-02  9.73e-03  0.000   0.8
    5    -335.1280526723409707    -3.99e-02  3.89e-04  2.25e-02  7.12e-03  0.000   0.8
                              *** Initializing SOSCF ***
---------------------------------------S-O-S-C-F--------------------------------------
Iteration    Energy (Eh)           Delta-E    RMSDP     MaxDP     MaxGrad    Time(sec)
--------------------------------------------------------------------------------------
    6    -335.1285762679869435    -5.24e-04  1.40e-04  6.02e-03  1.85e-03     0.8
               *** Restarting incremental Fock matrix formation ***
    7    -335.1286159042142003    -3.96e-05  1.69e-04  9.82e-03  4.67e-04     0.9
    8    -335.1286023365802862     1.36e-05  7.38e-05  4.53e-03  9.03e-04     0.7
    9    -335.1286238439705016    -2.15e-05  1.43e-05  5.49e-04  5.95e-05     0.7
   10    -335.1286237377879047     1.06e-07  5.91e-06  2.40e-04  7.77e-05     0.7
                 **** Energy Check signals convergence ****

               *****************************************************
               *                     SUCCESS                       *
               *           SCF CONVERGED AFTER  10 CYCLES          *
               *****************************************************

             **** ENERGY FILE WAS UPDATED (job.en.tmp) ****

----------------
TOTAL SCF ENERGY
----------------

Total Energy       :       -335.12862402405818 Eh           -9119.31348 eV

Components:
Nuclear Repulsion  :        329.92786110027083 Eh            8977.79352 eV
Electronic Energy  :       -665.05648512432913 Eh          -18097.10700 eV
One Electron Energy:      -1109.53222731465189 Eh          -30191.90683 eV
Two Electron Energy:        444.47574219032282 Eh           12094.79983 eV

Virial components:
Potential Energy   :       -669.05785714265198 Eh          -18205.98987 eV
Kinetic Energy     :        333.92923311859386 Eh            9086.67639 eV
Virial Ratio       :          2.00359175174411

DFT components:
N(Alpha)           :       28.000012648107 electrons
N(Beta)            :       28.000012648107 electrons
N(Total)           :       56.000025296214 electrons
E(X)               :      -45.305630981642 Eh       
E(C)               :       -1.857242225619 Eh       
E(XC)              :      -47.162873207261 Eh       

---------------
SCF CONVERGENCE
---------------

  Last Energy change         ...   -1.0618e-07  Tolerance :   1.0000e-06
  Last MAX-Density change    ...    2.4021e-04  Tolerance :   1.0000e-05
  Last RMS-Density change    ...    5.9053e-06  Tolerance :   1.0000e-06
  Last DIIS Error            ...    1.8461e-03  Tolerance :   1.0000e-06
  Last Orbital Gradient      ...    7.7704e-05  Tolerance :   5.0000e-05
  Last Orbital Rotation      ...    7.2242e-05  Tolerance :   5.0000e-05


----------------
ORBITAL ENERGIES
----------------

  NO   OCC          E(Eh)            E(eV) 
   0   2.0000     -24.240673      -659.6223 
   1   2.0000      -9.957237      -270.9502 
   2   2.0000      -9.891595      -269.1640 
   3   2.0000      -9.891586      -269.1637 
   4   2.0000      -9.889011      -269.0937 
   5   2.0000      -9.887529      -269.0533 
   6   2.0000      -9.887508      -269.0528 
   7   2.0000      -1.093395       -29.7528 
   8   2.0000      -0.761483       -20.7210 
   9   2.0000      -0.680662       -18.5218 
  10   2.0000      -0.670048       -18.2329 
  11   2.0000      -0.557756       -15.1773 
  12   2.0000      -0.551866       -15.0170 
  13   2.0000      -0.505505       -13.7555 
  14   2.0000      -0.451622       -12.2893 
  15   2.0000      -0.433642       -11.8000 
  16   2.0000      -0.406828       -11.0703 
  17   2.0000      -0.404476       -11.0064 
  18   2.0000      -0.379987       -10.3400 
  19   2.0000      -0.368506       -10.0275 
  20   2.0000      -0.339517        -9.2387 
  21   2.0000      -0.337966        -9.1965 
  22   2.0000      -0.306657        -8.3445 
  23   2.0000      -0.299537        -8.1508 
  24   2.0000      -0.293431        -7.9847 
  25   2.0000      -0.285604        -7.7717 
  26   2.0000      -0.263778        -7.1778 
  27   2.0000      -0.252204        -6.8628 
  28   0.0000       0.012278         0.3341 
  29   0.0000       0.028896         0.7863 
  30   0.0000       0.044443         1.2094 
  31   0.0000       0.054415         1.4807 
  32   0.0000       0.070266         1.9120 
  33   0.0000       0.085405         2.3240 
  34   0.0000       0.087744         2.3876 
  35   0.0000       0.090439         2.4610 
  36   0.0000       0.092505         2.5172 
  37   0.0000       0.108686         2.9575 
  38   0.0000       0.110089         2.9957 
*Only the first 10 virtual orbitals were printed.
------------------
MOLECULAR ORBITALS (RHF, ROHF)
------------------
                      0         1         2         3         4         5   
                 -24.24067  -9.95724  -9.89159  -9.89159  -9.88901  -9.88753
                   2.00000   2.00000   2.00000   2.00000   2.00000   2.00000
                  --------  --------  --------  --------  --------  --------
  0C   1s         0.000003 -0.000035 -0.449126 -0.131125  0.009552 -0.006180
  0C   2s        -0.000012  0.000015 -0.582116 -0.170005  0.012304 -0.007929
  0C   3s        -0.000256 -0.000765 -0.040168 -0.011016  0.001020 -0.000897
  0C   4s         0.002283  0.003046  0.030657  0.005618 -0.005362  0.006189
  0C   5s         0.000245 -0.011757 -0.062462 -0.006809  0.019676 -0.020763
  0C   1pz       -0.000024 -0.000061 -0.000298 -0.000031 -0.000077  0.000047
  0C   1px        0.000030 -0.000124 -0.000500 -0.000104 -0.000193 -0.000078
  0C   1py        0.000010  0.000014  0.000401  0.000033 -0.000186 -0.000260
  0C   2pz        0.000755  0.000989  0.002902 -0.000061 -0.000798  0.000986
  0C   2px       -0.000553  0.000960  0.003662  0.001778 -0.000578  0.000274
  0C   2py       -0.001894  0.001487 -0.002930  0.000358 -0.000356 -0.000862
  0C   3pz        0.000758  0.001555 -0.000348 -0.001857  0.001519 -0.001536
  0C   3px       -0.001185 -0.004760 -0.008758  0.001711  0.006617 -0.000970
  0C   3py       -0.001132  0.001842  0.005515 -0.000703  0.003084  0.007370
  0C   1dz2      -0.000040  0.000050  0.000016 -0.000042 -0.000076  0.000091
  0C   1dxz       0.000022  0.000004  0.000001  0.000017  0.000046  0.000010
  0C   1dyz      -0.000008  0.000008 -0.000000  0.000006  0.000029  0.000042
  0C   1dx2y2    -0.000070 -0.000049 -0.000002  0.000074  0.000022  0.000020
  0C   1dxy      -0.000030  0.000112  0.000015 -0.000080  0.000006  0.000014
  0C   2dz2      -0.000341 -0.000821 -0.002123  0.000176  0.000183 -0.000242
  0C   2dxz      -0.000313  0.000093  0.001172  0.000601  0.000693 -0.000198
  0C   2dyz      -0.000446  0.000434 -0.000511 -0.000083  0.000016  0.000520
  0C   2dx2y2    -0.000391  0.001076 -0.001386  0.000330  0.000465  0.001274
  0C   2dxy      -0.000039  0.000214  0.001533  0.001080  0.001121 -0.000046
  0C   1f0       -0.000003  0.000009  0.001142  0.000312 -0.000301  0.000220
  0C   1f+1       0.000014 -0.000036 -0.000156 -0.000049 -0.000212  0.000007
  0C   1f-1       0.000011 -0.000024 -0.000000 -0.000049 -0.000144 -0.000388
  0C   1f+2      -0.000039  0.000059 -0.000259 -0.000008  0.000350  0.000643
  0C   1f-2      -0.000018  0.000041  0.000350  0.000125  0.000641  0.000004
  0C   1f+3      -0.000018 -0.000109 -0.000001 -0.000139  0.000054  0.000061
  0C   1f-3      -0.000066 -0.000092  0.000551  0.000249 -0.000568  0.000618
  1C   1s         0.000009  0.000340 -0.005923 -0.001922  0.001399  0.462274
  1C   2s        -0.000044  0.000537 -0.007760 -0.002472  0.001767  0.599158
  1C   3s         0.000672  0.000106 -0.000117 -0.001206  0.000813  0.041483
  1C   4s        -0.001495  0.002877 -0.005472  0.003941 -0.003106 -0.031584
  1C   5s         0.007870 -0.013458  0.020638 -0.007860  0.010730  0.063676
  1C   1pz       -0.000018 -0.000065  0.000055  0.000023 -0.000060 -0.000254
  1C   1px        0.000017  0.000271  0.000075 -0.000119  0.000098  0.000549
  1C   1py        0.000024 -0.000158 -0.000238 -0.000143  0.000023  0.000363
  1C   2pz        0.000403 -0.000361  0.000915 -0.000696  0.000969  0.002496
  1C   2px        0.000568 -0.000900 -0.000386  0.001731 -0.000775 -0.004068
  1C   2py       -0.001687  0.000407 -0.000894  0.000636  0.001010 -0.002998
  1C   3pz        0.001018  0.001486 -0.001909  0.001333  0.002123  0.000620
  1C   3px        0.004594 -0.004707  0.000919 -0.002971  0.004186  0.008803
  1C   3py       -0.002428  0.002982  0.007767  0.000759  0.001702  0.005001
  1C   1dz2      -0.000088  0.000119 -0.000090  0.000016 -0.000051 -0.000040
  1C   1dxz      -0.000011  0.000041  0.000030 -0.000058  0.000005 -0.000014
  1C   1dyz      -0.000059 -0.000032 -0.000032 -0.000047  0.000002 -0.000019
  1C   1dx2y2    -0.000156 -0.000032 -0.000012 -0.000009  0.000030 -0.000018
  1C   1dxy      -0.000090  0.000071  0.000018 -0.000012  0.000104 -0.000009
  1C   2dz2       0.000661  0.000157  0.000167 -0.000803  0.000776  0.002369
  1C   2dxz       0.000263  0.000878 -0.000317 -0.000432 -0.000060  0.000865
  1C   2dyz       0.000619 -0.000142 -0.000509 -0.000289 -0.000261  0.000742
  1C   2dx2y2     0.001519 -0.001336 -0.001259 -0.000390 -0.000803  0.001256
  1C   2dxy       0.000432  0.001235 -0.000082 -0.000234  0.000333  0.001663
  1C   1f0       -0.000021 -0.000218  0.000177  0.000150  0.000008  0.001189
  1C   1f+1      -0.000021  0.000360  0.000048 -0.000013  0.000033 -0.000178
  1C   1f-1       0.000012 -0.000216 -0.000366 -0.000119 -0.000019 -0.000101
  1C   1f+2      -0.000008  0.000350  0.000624  0.000173  0.000022 -0.000227
  1C   1f-2      -0.000023 -0.000541  0.000010  0.000010 -0.000034 -0.000404
  1C   1f+3      -0.000103  0.000107  0.000002 -0.000013  0.000143 -0.000064
  1C   1f-3      -0.000079 -0.000671  0.000572  0.000273 -0.000107  0.000567
  2H   1s        -0.000041 -0.000000  0.000004  0.000006 -0.000043  0.000099
  2H   2s        -0.000363 -0.000083  0.000427  0.000137 -0.001347  0.002141
  2H   3s        -0.000334 -0.000020  0.000154 -0.000079 -0.001826  0.003274
  2H   1pz       -0.000033 -0.000001  0.000025  0.000002  0.000125 -0.000494
  2H   1px       -0.000020  0.000287  0.000066 -0.000018 -0.000009 -0.000008
  2H   1py       -0.000184  0.000117 -0.000130  0.000331 -0.000019  0.000031
  3H   1s        -0.000121 -0.000111  0.000107 -0.000013  0.000050 -0.000603
  3H   2s        -0.000208 -0.000967  0.001093  0.000614  0.000822 -0.003763
  3H   3s         0.000934  0.000584 -0.000329  0.000441  0.001612 -0.003831
  3H   1pz        0.000047  0.000059 -0.000030 -0.000080  0.000092 -0.000908
  3H   1px        0.000053 -0.000366  0.000040  0.000045  0.000102 -0.001862
  3H   1py       -0.000104  0.000192  0.000441  0.000158  0.000102 -0.001116
  4C   1s        -0.000003  0.000010 -0.006466 -0.011864 -0.467816  0.001050
  4C   2s         0.000013 -0.000020 -0.008434 -0.015474 -0.606347  0.001400
  4C   3s        -0.000215  0.001046 -0.000473 -0.000873 -0.041751 -0.000465
  4C   4s         0.001484 -0.005136 -0.002671 -0.004849  0.031934  0.002331
  4C   5s         0.000292  0.014589  0.010934  0.019983 -0.063961 -0.007418
  4C   1pz       -0.000009 -0.000023  0.000066  0.000079  0.000289  0.000045
  4C   1px        0.000000  0.000002  0.000328 -0.000187 -0.000019 -0.000058
  4C   1py        0.000039 -0.000123  0.000067  0.000119  0.000626  0.000072
  4C   2pz       -0.000247  0.001054  0.000444  0.000754 -0.002934 -0.000613
  4C   2px        0.000014 -0.000069  0.000381 -0.000260  0.000185  0.001705
  4C   2py       -0.000578  0.001912  0.000064  0.000106 -0.005036 -0.000003
  4C   3pz       -0.002627 -0.003367 -0.000875 -0.000654  0.000535 -0.001218
  4C   3px        0.000118  0.000193 -0.007474  0.004194 -0.000096 -0.000425
  4C   3py        0.002451 -0.002287 -0.002705 -0.004825  0.010581  0.003131
  4C   1dz2      -0.000021 -0.000055 -0.000048 -0.000102  0.000006  0.000042
  4C   1dxz       0.000001  0.000004  0.000063 -0.000024 -0.000002 -0.000016
  4C   1dyz      -0.000028 -0.000063  0.000020  0.000031  0.000009 -0.000008
  4C   1dx2y2    -0.000031 -0.000023 -0.000009 -0.000006 -0.000024  0.000094
  4C   1dxy       0.000001  0.000003  0.000034 -0.000022 -0.000001 -0.000016
  4C   2dz2      -0.000245  0.000799  0.000057 -0.000007 -0.002130 -0.000614
  4C   2dxz       0.000040 -0.000086  0.000512 -0.000213  0.000306 -0.000209
  4C   2dyz       0.000142 -0.000534  0.000508  0.000746  0.001321 -0.000151
  4C   2dx2y2     0.000343 -0.000298  0.000566  0.001134  0.002159 -0.000093
  4C   2dxy      -0.000001  0.000026  0.001359 -0.000782 -0.000043 -0.001086
  4C   1f0       -0.000036 -0.000105  0.000195  0.000241 -0.001206 -0.000002
  4C   1f+1       0.000003  0.000015  0.000329 -0.000278  0.000121 -0.000044
  4C   1f-1       0.000013 -0.000007  0.000048  0.000229  0.000069  0.000021
  4C   1f+2      -0.000018  0.000016 -0.000272 -0.000434 -0.000440 -0.000026
  4C   1f-2      -0.000003  0.000008 -0.000767  0.000329  0.000030  0.000052
  4C   1f+3      -0.000002  0.000003  0.000035 -0.000075 -0.000017  0.000150
  4C   1f-3       0.000028 -0.000107  0.000354  0.000757 -0.000624  0.000092
  5F   1s         0.426126 -0.000007 -0.000000 -0.000001  0.000000  0.000001
  5F   2s         0.647769 -0.000132  0.000006  0.000011 -0.000008 -0.000021
  5F   3s         0.036226  0.001236 -0.000083 -0.000152  0.000097  0.000239
  5F   4s        -0.025297 -0.002000  0.000249  0.000454 -0.000311 -0.000737
  5F   5s         0.011555  0.000618  0.000485  0.000882  0.000448 -0.000904
  5F   1pz       -0.000476 -0.000191  0.000024  0.000045  0.000008 -0.000016
  5F   1px        0.000017  0.000008 -0.000009  0.000002 -0.000000 -0.000078
  5F   1py        0.001339  0.000431 -0.000036 -0.000065  0.000002  0.000072
  5F   2pz        0.001120  0.000801 -0.000145 -0.000267 -0.000004  0.000138
  5F   2px       -0.000038 -0.000031  0.000016  0.000006  0.000000  0.000411
  5F   2py       -0.003578 -0.001928  0.000264  0.000482 -0.000079 -0.000547
  5F   3pz        0.000136 -0.000345  0.000021  0.000073  0.000406 -0.000039
  5F   3px       -0.000015  0.000011 -0.000263  0.000140 -0.000021  0.000262
  5F   3py        0.001215  0.001022 -0.000011 -0.000018  0.000047 -0.000288
  5F   1dz2      -0.000085 -0.000030 -0.000000  0.000002  0.000004 -0.000002
  5F   1dxz      -0.000000 -0.000008 -0.000012  0.000006 -0.000000  0.000013
  5F   1dyz      -0.000146 -0.000143  0.000008  0.000015 -0.000009  0.000008
  5F   1dx2y2    -0.000173 -0.000209 -0.000005 -0.000011  0.000000 -0.000007
  5F   1dxy       0.000006  0.000005 -0.000002 -0.000000  0.000000 -0.000040
  5F   2dz2       0.000371  0.000321 -0.000010 -0.000029 -0.000006  0.000044
  5F   2dxz       0.000002  0.000036  0.000050 -0.000024  0.000001 -0.000086
  5F   2dyz       0.000590  0.000935 -0.000060 -0.000109  0.000066 -0.000020
  5F   2dx2y2     0.000744  0.001318 -0.000009 -0.000010  0.000021  0.000075
  5F   2dxy      -0.000023 -0.000034 -0.000002  0.000009 -0.000003  0.000264
  5F   1f0       -0.000079 -0.000193  0.000002  0.000005 -0.000005  0.000000
  5F   1f+1       0.000002 -0.000001 -0.000002  0.000000  0.000000  0.000006
  5F   1f-1       0.000041  0.000089  0.000002  0.000004 -0.000000  0.000007
  5F   1f+2      -0.000098 -0.000300 -0.000000  0.000000 -0.000003  0.000021
  5F   1f-2       0.000002  0.000011  0.000000 -0.000000 -0.000000 -0.000032
  5F   1f+3      -0.000004 -0.000014  0.000008 -0.000004 -0.000000  0.000049
  5F   1f-3      -0.000108 -0.000333 -0.000001 -0.000002  0.000002 -0.000007
  6H   1s        -0.000016  0.000011  0.000411  0.000096  0.000010 -0.000003
  6H   2s         0.000518  0.001594  0.005261  0.000090 -0.000258  0.000266
  6H   3s         0.000174  0.001759  0.008797  0.000562 -0.000684  0.000524
  6H   1pz        0.000090  0.000152  0.002344  0.000553 -0.000049  0.000060
  6H   1px        0.000016 -0.000008  0.000200  0.000070  0.000314 -0.000037
  6H   1py       -0.000014  0.000014 -0.000229 -0.000063  0.000160  0.000349
  7H   1s        -0.000018 -0.000072  0.000586  0.000236  0.000082 -0.000095
  7H   2s        -0.000408 -0.000934  0.003563  0.001982  0.001185 -0.001135
  7H   3s         0.000056 -0.001606  0.003447  0.002669 -0.000255  0.000394
  7H   1pz        0.000004  0.000093 -0.000690 -0.000275  0.000109 -0.000059
  7H   1px       -0.000034 -0.000117  0.001880  0.000731  0.000373 -0.000004
  7H   1py        0.000123  0.000110 -0.001048 -0.000343  0.000222  0.000440
  8C   1s         0.000003 -0.000035  0.131329 -0.449066  0.009592  0.000775
  8C   2s        -0.000012  0.000015  0.170172 -0.582066  0.012357  0.000951
  8C   3s        -0.000255 -0.000772  0.012345 -0.039781  0.001019  0.001142
  8C   4s         0.002283  0.003080 -0.011772  0.028870 -0.005348 -0.005697
  8C   5s         0.000212 -0.011805  0.027880 -0.056344  0.019666  0.014997
  8C   1pz       -0.000027 -0.000047  0.000114 -0.000217 -0.000056 -0.000003
  8C   1px       -0.000027  0.000129 -0.000193  0.000499  0.000203 -0.000138
  8C   1py        0.000009  0.000016 -0.000191  0.000361 -0.000183 -0.000025
  8C   2pz        0.000820  0.000877 -0.001555  0.001977 -0.000728 -0.000982
  8C   2px        0.000489 -0.001078  0.000617 -0.004248  0.000659  0.001619
  8C   2py       -0.001880  0.001467  0.001882 -0.002331 -0.000356  0.000852
  8C   3pz        0.000896  0.002047 -0.002010 -0.000584  0.000807  0.001981
  8C   3px        0.001120  0.004563 -0.005937  0.006543 -0.006775 -0.002972
  8C   3py       -0.001095  0.001919 -0.003635  0.004369  0.003007 -0.002579
  8C   1dz2      -0.000045  0.000048 -0.000046 -0.000010 -0.000084 -0.000063
  8C   1dxz      -0.000022 -0.000018  0.000001 -0.000004 -0.000029  0.000067
  8C   1dyz      -0.000005 -0.000004  0.000013  0.000006  0.000028  0.000031
  8C   1dx2y2    -0.000068 -0.000045  0.000063  0.000037  0.000026  0.000000
  8C   1dxy       0.000028 -0.000113  0.000076  0.000031 -0.000009  0.000024
  8C   2dz2      -0.000280 -0.000815  0.001298 -0.001912  0.000056  0.000809
  8C   2dxz       0.000331  0.000170 -0.000010 -0.001064 -0.000659  0.000186
  8C   2dyz      -0.000440  0.000408  0.000201 -0.000696 -0.000113  0.000068
  8C   2dx2y2    -0.000423  0.001075  0.001018 -0.000818  0.000562 -0.000159
  8C   2dxy       0.000076 -0.000231 -0.000085 -0.001832 -0.001105  0.000145
  8C   1f0       -0.000007  0.000018 -0.000348  0.001129 -0.000229  0.000055
  8C   1f+1      -0.000019  0.000041  0.000070 -0.000173  0.000342 -0.000034
  8C   1f-1       0.000014 -0.000028 -0.000026 -0.000088 -0.000239  0.000055
  8C   1f+2      -0.000039  0.000038  0.000111 -0.000216  0.000320 -0.000102
  8C   1f-2       0.000023 -0.000024  0.000102 -0.000433 -0.000521 -0.000003
  8C   1f+3       0.000016  0.000118  0.000136  0.000024  0.000012  0.000005
  8C   1f-3      -0.000062 -0.000092 -0.000071  0.000549 -0.000645  0.000000
  9H   1s         0.000101  0.000073  0.000070  0.000128  0.000632 -0.000049
  9H   2s        -0.000197 -0.000640  0.000972  0.001766  0.003805 -0.000666
  9H   3s        -0.001762 -0.001541  0.000103  0.000182  0.003687 -0.001155
  9H   1pz        0.000028  0.000092 -0.000065 -0.000060  0.000779 -0.000066
  9H   1px       -0.000002 -0.000005 -0.000457  0.000259 -0.000028  0.000052
  9H   1py       -0.000004  0.000081 -0.000216 -0.000387 -0.002256  0.000128
 10H   1s        -0.000070 -0.000031  0.000019  0.000034  0.000407  0.000035
 10H   2s         0.000767 -0.000281 -0.000037 -0.000063  0.005346  0.000957
 10H   3s         0.001011  0.000265 -0.000336 -0.000613  0.008745  0.001361
 10H   1pz       -0.000065 -0.000023 -0.000042 -0.000031 -0.002428 -0.000079
 10H   1px        0.000004  0.000002 -0.000356  0.000200  0.000132  0.000001
 10H   1py       -0.000076 -0.000070 -0.000139 -0.000247 -0.000336  0.000010
 11C   1s         0.000009  0.000340  0.001566 -0.006009  0.001382 -0.072693
 11C   2s        -0.000044  0.000537  0.002090 -0.007848  0.001745 -0.094173
 11C   3s         0.000672  0.000113 -0.000952 -0.000750  0.000818 -0.007236
 11C   4s        -0.001499  0.002848  0.006258 -0.002471 -0.003134  0.008317
 11C   5s         0.007929 -0.013412 -0.017689  0.013166  0.010762 -0.019762
 11C   1pz       -0.000020 -0.000094  0.000005  0.000059 -0.000071  0.000100
 11C   1px       -0.000015 -0.000260  0.000141 -0.000001 -0.000092  0.000133
 11C   1py        0.000023 -0.000161  0.000009 -0.000277  0.000023 -0.000121
 11C   2pz        0.000345 -0.000255 -0.001256  0.000323  0.001044 -0.001310
 11C   2px       -0.000585  0.000937 -0.001548 -0.000651  0.000651 -0.000109
 11C   2py       -0.001688  0.000412  0.000995 -0.000425  0.001013  0.001317
 11C   3pz        0.000509  0.001988  0.002463 -0.000830  0.001636 -0.001658
 11C   3px       -0.004660  0.004466  0.002789  0.000843 -0.004425  0.005211
 11C   3py       -0.002472  0.003050 -0.003506  0.006951  0.001656 -0.002977
 11C   1dz2      -0.000086  0.000109  0.000074 -0.000065 -0.000051  0.000050
 11C   1dxz       0.000011 -0.000066  0.000052  0.000018  0.000008 -0.000020
 11C   1dyz      -0.000049 -0.000040 -0.000019 -0.000053 -0.000009 -0.000020
 11C   1dx2y2    -0.000160 -0.000025 -0.000008 -0.000017  0.000032 -0.000064
 11C   1dxy       0.000092 -0.000068  0.000022 -0.000003 -0.000103  0.000094
 11C   2dz2       0.000618 -0.000020 -0.000709 -0.000205  0.000763 -0.001163
 11C   2dxz      -0.000223 -0.001028  0.000369  0.000413 -0.000170 -0.000035
 11C   2dyz       0.000566 -0.000289  0.000048 -0.000555 -0.000294 -0.000006
 11C   2dx2y2     0.001554 -0.001196  0.000314 -0.001320 -0.000787 -0.000845
 11C   2dxy      -0.000458 -0.001248  0.000155  0.000228 -0.000319 -0.000265
 11C   1f0       -0.000015 -0.000297  0.000035  0.000230 -0.000001 -0.000192
 11C   1f+1       0.000023 -0.000224 -0.000007  0.000018 -0.000027  0.000044
 11C   1f-1       0.000017 -0.000114  0.000095 -0.000372 -0.000011 -0.000024
 11C   1f+2      -0.000027  0.000395 -0.000193  0.000619  0.000044  0.000095
 11C   1f-2       0.000030  0.000664 -0.000014 -0.000018  0.000052 -0.000043
 11C   1f+3       0.000104 -0.000031 -0.000011  0.000065 -0.000134 -0.000137
 11C   1f-3      -0.000071 -0.000594 -0.000079  0.000627 -0.000107  0.000011
 12H   1s        -0.000017  0.000011 -0.000140  0.000397  0.000010 -0.000015
 12H   2s         0.000526  0.001585 -0.002752  0.004490 -0.000256 -0.000445
 12H   3s         0.000183  0.001762 -0.004258  0.007731 -0.000681 -0.000109
 12H   1pz        0.000089  0.000150 -0.000785  0.002240 -0.000083  0.000008
 12H   1px       -0.000026 -0.000007  0.000130 -0.000443 -0.000308 -0.000074
 12H   1py       -0.000015  0.000016  0.000069 -0.000226  0.000155 -0.000097
 13H   1s        -0.000018 -0.000073 -0.000117  0.000621  0.000082  0.000066
 13H   2s        -0.000410 -0.000938 -0.000245  0.004067  0.001187 -0.000054
 13H   3s         0.000049 -0.001611  0.000395  0.004320 -0.000257 -0.000543
 13H   1pz        0.000007  0.000105  0.000181 -0.000933  0.000069 -0.000066
 13H   1px        0.000032  0.000106  0.000375 -0.001877 -0.000385  0.000034
 13H   1py        0.000124  0.000113  0.000280 -0.001093  0.000217 -0.000053
 14C   1s         0.000042  0.468081 -0.000011 -0.000020  0.000001 -0.000318
 14C   2s        -0.000177  0.606670 -0.000060 -0.000110  0.000042 -0.000330
 14C   3s        -0.001437  0.040305  0.000627  0.001152 -0.001181 -0.000239
 14C   4s         0.005682 -0.027196 -0.002458 -0.004530  0.005799  0.003574
 14C   5s        -0.024218  0.050034  0.007877  0.014473 -0.014644 -0.014763
 14C   1pz       -0.000078  0.000688  0.000062  0.000106 -0.000010  0.000006
 14C   1px        0.000003 -0.000034  0.000057 -0.000039  0.000001 -0.000275
 14C   1py        0.000264 -0.000647  0.000018  0.000032 -0.000130  0.000169
 14C   2pz        0.001782 -0.003284 -0.000818 -0.001265  0.001037  0.000619
 14C   2px       -0.000067  0.000192 -0.001745  0.001043 -0.000067 -0.000600
 14C   2py       -0.004349 -0.000926  0.000011  0.000039  0.001578 -0.000281
 14C   3pz       -0.006383 -0.001801 -0.000483 -0.000975 -0.003173 -0.000266
 14C   3px        0.000353  0.000028  0.000722 -0.000369  0.000196  0.006720
 14C   3py       -0.001001  0.011109  0.002069  0.003794 -0.004217 -0.003066
 14C   1dz2      -0.000188 -0.000080 -0.000046 -0.000076  0.000069  0.000078
 14C   1dxz      -0.000005  0.000001 -0.000036  0.000019 -0.000005  0.000084
 14C   1dyz      -0.000245 -0.000224  0.000001  0.000004  0.000056  0.000008
 14C   1dx2y2    -0.000441 -0.000141 -0.000081 -0.000152  0.000031  0.000019
 14C   1dxy       0.000008  0.000011 -0.000009  0.000002 -0.000003  0.000007
 14C   2dz2      -0.000903  0.002296  0.000555  0.001060 -0.000882 -0.000026
 14C   2dxz       0.000010 -0.000283 -0.000254  0.000022  0.000087  0.000211
 14C   2dyz      -0.002486  0.000022  0.000048  0.000250  0.000318 -0.000699
 14C   2dx2y2    -0.001699 -0.001208  0.000155  0.000213  0.000090 -0.000997
 14C   2dxy       0.000115 -0.000014 -0.001274  0.000683 -0.000015  0.001416
 14C   1f0       -0.000420 -0.001362  0.000020  0.000022 -0.000104  0.000142
 14C   1f+1      -0.000002  0.000141  0.000053 -0.000031  0.000012 -0.000402
 14C   1f-1       0.000216 -0.000036 -0.000007  0.000002 -0.000014  0.000195
 14C   1f+2      -0.000654 -0.000494  0.000019  0.000015 -0.000027 -0.000345
 14C   1f-2       0.000014  0.000050 -0.000082  0.000031  0.000009  0.000651
 14C   1f+3      -0.000032 -0.000018 -0.000176  0.000093  0.000001 -0.000103
 14C   1f-3      -0.000608 -0.000793  0.000080  0.000166 -0.000125  0.000520
 15H   1s        -0.000121 -0.000111 -0.000068  0.000083  0.000050  0.000025
 15H   2s        -0.000207 -0.000969 -0.000073  0.001246  0.000826 -0.000379
 15H   3s         0.000936  0.000585  0.000541 -0.000052  0.001612 -0.000939
 15H   1pz        0.000041  0.000099 -0.000052 -0.000076  0.000080  0.000039
 15H   1px       -0.000057  0.000355 -0.000009 -0.000055 -0.000114 -0.000126
 15H   1py       -0.000105  0.000196 -0.000104  0.000455  0.000102  0.000128
 16H   1s        -0.000040 -0.000000  0.000003  0.000007 -0.000042 -0.000405
 16H   2s        -0.000354 -0.000079 -0.000120  0.000433 -0.001361 -0.005430
 16H   3s        -0.000330 -0.000015 -0.000153  0.000086 -0.001827 -0.009059
 16H   1pz       -0.000032 -0.000033 -0.000005  0.000017  0.000128  0.002385
 16H   1px        0.000026 -0.000287  0.000046 -0.000049 -0.000006 -0.000457
 16H   1py       -0.000185  0.000114  0.000350  0.000068 -0.000021 -0.000268
 17H   1s         0.000052 -0.000538 -0.000038 -0.000070  0.000023 -0.000004
 17H   2s         0.000976 -0.005935 -0.000833 -0.001511  0.000416  0.000211
 17H   3s         0.000273 -0.007598 -0.001137 -0.002090 -0.000388  0.000648
 17H   1pz        0.000043 -0.002566 -0.000078 -0.000141 -0.000037  0.000056
 17H   1px       -0.000001  0.000144  0.000006  0.000007  0.000002  0.000309
 17H   1py       -0.000184 -0.000454  0.000023  0.000043 -0.000051 -0.000191
                      6         7         8         9        10        11   
                  -9.88751  -1.09339  -0.76148  -0.68066  -0.67005  -0.55776
                   2.00000   2.00000   2.00000   2.00000   2.00000   2.00000
                  --------  --------  --------  --------  --------  --------
  0C   1s        -0.001174 -0.000412 -0.043743 -0.050377  0.027234 -0.045389
  0C   2s        -0.001551 -0.000847 -0.091343 -0.105761  0.057221 -0.096001
  0C   3s         0.000912  0.001391  0.136354  0.161057 -0.087902  0.146039
  0C   4s        -0.004001 -0.001016  0.151364  0.185246 -0.097191  0.208263
  0C   5s         0.009134  0.011345  0.003046 -0.003945 -0.011850 -0.050872
  0C   1pz        0.000027  0.000105  0.011924  0.007658 -0.007289 -0.013449
  0C   1px        0.000120  0.000353  0.025511 -0.012251 -0.028195 -0.013393
  0C   1py       -0.000108 -0.000676 -0.014702 -0.030452 -0.051212  0.059850
  0C   2pz       -0.000891 -0.000063  0.008906  0.006800 -0.004824 -0.002589
  0C   2px       -0.001508 -0.000154  0.020850 -0.004051 -0.018927 -0.001596
  0C   2py        0.000598 -0.001397 -0.013398 -0.021318 -0.030837  0.033749
  0C   3pz        0.001921 -0.000660 -0.000800 -0.000460  0.000144 -0.004545
  0C   3px        0.002606  0.003191  0.003544 -0.007640 -0.011357 -0.024319
  0C   3py       -0.000300 -0.002444 -0.000994 -0.006947 -0.016256  0.026278
  0C   1dz2      -0.000048 -0.000019 -0.001608 -0.000718  0.000066  0.001518
  0C   1dxz      -0.000053 -0.000020  0.001053 -0.000289 -0.001113  0.000051
  0C   1dyz       0.000043 -0.000012 -0.000429 -0.000877 -0.001535  0.001741
  0C   1dx2y2     0.000015 -0.000014 -0.000303 -0.002451 -0.002831  0.002056
  0C   1dxy      -0.000024 -0.000002  0.000374  0.000097 -0.002443 -0.000129
  0C   2dz2       0.000724  0.000000 -0.003128 -0.001357  0.000053 -0.002246
  0C   2dxz      -0.000432  0.000055  0.002146  0.002215 -0.002106  0.002623
  0C   2dyz       0.000216 -0.000459 -0.001229 -0.001529 -0.000251  0.000587
  0C   2dx2y2     0.000278 -0.000698 -0.001156 -0.005562 -0.002521 -0.001431
  0C   2dxy      -0.000181 -0.000404  0.001370  0.003042 -0.004801  0.000951
  0C   1f0        0.000134 -0.000058 -0.002018 -0.002403  0.001293 -0.002424
  0C   1f+1       0.000003  0.000004 -0.000331  0.000036  0.000043 -0.000022
  0C   1f-1      -0.000068  0.000030  0.000462  0.000449 -0.000037  0.000509
  0C   1f+2       0.000099 -0.000098  0.000029 -0.000280 -0.000037 -0.000095
  0C   1f-2      -0.000008  0.000036  0.000200  0.000579 -0.000399  0.000587
  0C   1f+3       0.000001 -0.000053  0.000012  0.000315  0.000394  0.000701
  0C   1f-3       0.000199  0.000007 -0.002045 -0.002666  0.001361 -0.002586
  1C   1s         0.072674 -0.004265 -0.041496 -0.052091 -0.032830  0.041761
  1C   2s         0.094240 -0.008625 -0.086696 -0.109383 -0.069032  0.088363
  1C   3s         0.005773  0.012234  0.129566  0.166040  0.105507 -0.133911
  1C   4s        -0.001443  0.010133  0.141615  0.192732  0.121083 -0.193414
  1C   5s        -0.000263 -0.001673  0.008008 -0.005407  0.002372  0.054356
  1C   1pz        0.000007 -0.000471 -0.009971 -0.010075 -0.006624 -0.011303
  1C   1px        0.000028  0.006240  0.024723 -0.010396  0.030941  0.005586
  1C   1py       -0.000011 -0.006931  0.019062  0.026607 -0.040864  0.072401
  1C   2pz       -0.000554  0.000583 -0.006872 -0.008249 -0.005832 -0.001983
  1C   2px       -0.001061  0.003321  0.021434 -0.002122  0.022428 -0.003218
  1C   2py        0.000423 -0.004917  0.013734  0.017763 -0.023273  0.042089
  1C   3pz       -0.002145 -0.000127  0.000581 -0.002527 -0.000754  0.000873
  1C   3px       -0.002371  0.001843  0.003835 -0.009461  0.008430  0.022223
  1C   3py       -0.001594 -0.002219  0.004549  0.008110 -0.014893  0.028419
  1C   1dz2       0.000042 -0.000459 -0.001768 -0.000777 -0.000473 -0.001217
  1C   1dxz      -0.000001  0.000115 -0.000871 -0.000006 -0.001048  0.000505
  1C   1dyz      -0.000037  0.000051 -0.000595 -0.000870  0.001027 -0.002095
  1C   1dx2y2    -0.000072 -0.000296 -0.000164 -0.002410  0.002972 -0.002278
  1C   1dxy      -0.000100 -0.000796 -0.000146 -0.000295 -0.002209  0.000477
  1C   2dz2      -0.000443 -0.000663 -0.002792 -0.001866 -0.000734  0.002502
  1C   2dxz       0.000447  0.000331 -0.002180 -0.002975 -0.002508  0.002717
  1C   2dyz       0.000266 -0.000332 -0.000843 -0.001717 -0.000435 -0.001031
  1C   2dx2y2    -0.000502 -0.000644  0.000658 -0.004900  0.004653  0.000822
  1C   2dxy       0.000785 -0.001699 -0.000728 -0.003693 -0.004151  0.001038
  1C   1f0        0.000178 -0.000070  0.001805  0.002443  0.001566 -0.002179
  1C   1f+1      -0.000032 -0.000230 -0.000750 -0.000532 -0.000447  0.000591
  1C   1f-1      -0.000049  0.000375 -0.000445 -0.000312 -0.000073  0.000332
  1C   1f+2       0.000007  0.000186 -0.000047  0.000268 -0.000049 -0.000000
  1C   1f-2      -0.000081 -0.000209 -0.000044  0.000313  0.000204 -0.000437
  1C   1f+3       0.000135  0.000796 -0.000208  0.000326 -0.000780 -0.000847
  1C   1f-3       0.000207  0.000045  0.001898  0.002814  0.001725 -0.002458
  2H   1s        -0.000392  0.002184  0.026202 -0.038563  0.024149  0.046300
  2H   2s        -0.005024  0.001760  0.027611 -0.041768  0.026537  0.057582
  2H   3s        -0.008477  0.001349  0.005949 -0.013574  0.007555  0.022747
  2H   1pz        0.002385 -0.000454 -0.004567  0.006166 -0.004042 -0.006830
  2H   1px        0.000203 -0.000288 -0.001159 -0.000208 -0.001270  0.000061
  2H   1py       -0.000262 -0.000309  0.001174 -0.001582 -0.001236 -0.002074
  3H   1s        -0.000168  0.001963  0.023277  0.042401  0.026185 -0.053242
  3H   2s        -0.001608  0.002111  0.026001  0.048182  0.029989 -0.061230
  3H   3s        -0.002223  0.000943  0.007479  0.007251  0.005272 -0.010441
  3H   1pz       -0.000237  0.000169  0.001151  0.002380  0.001416 -0.003692
  3H   1px       -0.000474  0.000643  0.003711  0.005281  0.004591 -0.006680
  3H   1py       -0.000223 -0.000181  0.002440  0.004420  0.000563 -0.001150
  4C   1s         0.001421 -0.000179 -0.043783  0.000003  0.059380  0.000038
  4C   2s         0.001895 -0.000349 -0.091427  0.000007  0.124716  0.000080
  4C   3s        -0.000647 -0.000004  0.136984 -0.000003 -0.189674 -0.000130
  4C   4s         0.003239  0.002992  0.148561 -0.000023 -0.222660 -0.000148
  4C   5s        -0.010264 -0.009585  0.007803 -0.000139  0.016772  0.000028
  4C   1pz        0.000068 -0.000032 -0.011814 -0.003267  0.009790 -0.005255
  4C   1px        0.000036  0.000004  0.000842 -0.060741 -0.000519 -0.098999
  4C   1py        0.000100 -0.000292 -0.029667 -0.000362  0.000512 -0.000638
  4C   2pz       -0.001032 -0.000746 -0.008125 -0.002013  0.009454 -0.003321
  4C   2px       -0.001158  0.000047  0.000615 -0.037302 -0.000531 -0.062643
  4C   2py       -0.000032 -0.000782 -0.024227 -0.000225  0.005540 -0.000418
  4C   3pz       -0.001625  0.002444  0.000371 -0.001116 -0.003329 -0.001434
  4C   3px        0.000414 -0.000138  0.000008 -0.020500  0.000196 -0.027081
  4C   3py        0.004336  0.001508 -0.003816 -0.000082 -0.007654 -0.000218
  4C   1dz2       0.000061  0.000008 -0.001661  0.000173  0.000553  0.000340
  4C   1dxz       0.000014 -0.000001  0.000170  0.001858 -0.000133  0.003664
  4C   1dyz      -0.000008  0.000036  0.001081  0.000219 -0.000223  0.000221
  4C   1dx2y2     0.000127 -0.000002  0.000431 -0.000147 -0.001549 -0.000241
  4C   1dxy       0.000015 -0.000002 -0.000055  0.003889 -0.000007  0.003736
  4C   2dz2      -0.000793 -0.000569 -0.002731  0.000087  0.001957  0.000294
  4C   2dxz       0.000255  0.000060  0.000352  0.000848 -0.000523  0.003228
  4C   2dyz      -0.000078  0.000052  0.002546  0.000320 -0.003345 -0.000040
  4C   2dx2y2    -0.000181  0.000150  0.002110 -0.000106 -0.006675 -0.000173
  4C   2dxy       0.000795 -0.000003 -0.000122  0.005586  0.000095 -0.000928
  4C   1f0        0.000009  0.000018  0.001946  0.000022 -0.002843 -0.000041
  4C   1f+1       0.000027 -0.000004 -0.000272  0.000173  0.000437 -0.000285
  4C   1f-1       0.000019  0.000014  0.000560 -0.000014 -0.000262 -0.000016
  4C   1f+2      -0.000021 -0.000020 -0.000122  0.000023  0.000701 -0.000061
  4C   1f-2      -0.000053 -0.000006 -0.000180 -0.000171  0.000243 -0.000174
  4C   1f+3      -0.000115 -0.000002 -0.000045 -0.000568  0.000106  0.001322
  4C   1f-3       0.000113  0.000079  0.001990 -0.000024 -0.003220  0.000011
  5F   1s         0.000001 -0.099558  0.015092  0.000005  0.022696 -0.000014
  5F   2s        -0.000029 -0.240599  0.036805  0.000012  0.055492 -0.000033
  5F   3s         0.000329  0.339373 -0.054438 -0.000017 -0.083433  0.000049
  5F   4s        -0.001015  0.481343 -0.077517 -0.000032 -0.116228  0.000074
  5F   5s        -0.001228  0.179206 -0.040929 -0.000008 -0.073468  0.000056
  5F   1pz       -0.000013 -0.026377 -0.004732 -0.001142 -0.021642  0.003481
  5F   1px        0.000057  0.001014  0.000095 -0.020892  0.000720  0.062109
  5F   1py        0.000100  0.066740  0.026270 -0.000118  0.072383  0.000322
  5F   2pz        0.000141 -0.024542 -0.003114 -0.000978 -0.016186  0.002888
  5F   2px       -0.000305  0.000943  0.000048 -0.017910  0.000528  0.051555
  5F   2py       -0.000754  0.062368  0.019568 -0.000105  0.055632  0.000273
  5F   3pz       -0.000085 -0.001408 -0.000701 -0.000390 -0.006968  0.001230
  5F   3px       -0.000181  0.000052 -0.000009 -0.007170  0.000235  0.021921
  5F   3py       -0.000398  0.003634  0.007951 -0.000041  0.022605  0.000115
  5F   1dz2      -0.000005 -0.000877 -0.000234  0.000014 -0.000508 -0.000034
  5F   1dxz      -0.000010 -0.000025  0.000004  0.000149  0.000001 -0.000359
  5F   1dyz       0.000015 -0.001760 -0.000138 -0.000024 -0.000611  0.000059
  5F   1dx2y2    -0.000009 -0.002177 -0.000350 -0.000002 -0.000926  0.000006
  5F   1dxy       0.000027  0.000068  0.000003 -0.000466  0.000022  0.001101
  5F   2dz2       0.000078 -0.003877 -0.000833  0.000058 -0.001582 -0.000124
  5F   2dxz       0.000061 -0.000128  0.000024  0.000615 -0.000011 -0.001292
  5F   2dyz      -0.000058 -0.007945 -0.000048 -0.000156 -0.001725  0.000310
  5F   2dx2y2     0.000100 -0.009994 -0.001006  0.000004 -0.003143  0.000001
  5F   2dxy      -0.000186  0.000307 -0.000010 -0.002937  0.000054  0.005684
  5F   1f0       -0.000001  0.000894  0.000060  0.000012  0.000274 -0.000021
  5F   1f+1       0.000000 -0.000006 -0.000001  0.000086 -0.000002 -0.000153
  5F   1f-1       0.000015 -0.000393 -0.000149  0.000017 -0.000257 -0.000044
  5F   1f+2       0.000035  0.001289  0.000067  0.000019  0.000381 -0.000045
  5F   1f-2       0.000023 -0.000037  0.000004  0.000192 -0.000005 -0.000487
  5F   1f+3      -0.000032  0.000061  0.000002 -0.000433  0.000016  0.000938
  5F   1f-3      -0.000008  0.001311  0.000142  0.000005  0.000478 -0.000015
  6H   1s        -0.000017  0.000220  0.028335  0.037750 -0.020830  0.049914
  6H   2s        -0.000387 -0.000376  0.029749  0.040546 -0.021626  0.061748
  6H   3s         0.000053 -0.001601  0.006356  0.011783 -0.005013  0.022392
  6H   1pz        0.000035  0.000023  0.004868  0.005959 -0.003357  0.007260
  6H   1px        0.000065  0.000004  0.001318 -0.000198 -0.001281 -0.000259
  6H   1py        0.000012 -0.000051 -0.000969 -0.001672 -0.001802  0.001645
  7H   1s         0.000038  0.000131  0.025233  0.040841 -0.023347  0.056741
  7H   2s        -0.000426  0.000473  0.027963  0.046514 -0.027054  0.065565
  7H   3s        -0.000452  0.000873  0.007539  0.007313 -0.004380  0.011041
  7H   1pz       -0.000092  0.000004 -0.000879 -0.001814  0.000932 -0.003211
  7H   1px       -0.000029  0.000076  0.004215  0.005247 -0.004468  0.007100
  7H   1py        0.000086 -0.000118 -0.002277 -0.004315 -0.000052 -0.001772
  8C   1s        -0.006225 -0.000413 -0.043777  0.050343  0.027214  0.045376
  8C   2s        -0.008000 -0.000848 -0.091414  0.105691  0.057179  0.095973
  8C   3s        -0.000569  0.001393  0.136470 -0.160965 -0.087829 -0.145973
  8C   4s         0.004644 -0.001020  0.151420 -0.185072 -0.097168 -0.208310
  8C   5s        -0.016976  0.011425  0.003078  0.004130 -0.011665  0.050846
  8C   1pz        0.000058  0.000068  0.009188 -0.009018 -0.004180  0.012144
  8C   1px        0.000034 -0.000355 -0.026482 -0.011696  0.029448 -0.013915
  8C   1py       -0.000280 -0.000681 -0.015039  0.030268 -0.050872 -0.060108
  8C   2pz        0.000682 -0.000049  0.006658 -0.007244 -0.002735  0.002518
  8C   2px        0.000147  0.000183 -0.021527 -0.003544  0.019715 -0.001359
  8C   2py       -0.000638 -0.001407 -0.013667  0.021211 -0.030595 -0.033776
  8C   3pz       -0.000885 -0.001005 -0.001153 -0.000314  0.001438  0.001993
  8C   3px        0.000126 -0.003101 -0.003425 -0.007761  0.011447 -0.024343
  8C   3py        0.006916 -0.002517 -0.001032  0.006822 -0.016118 -0.026612
  8C   1dz2       0.000072 -0.000015 -0.001774  0.000671  0.000245 -0.001496
  8C   1dxz      -0.000005  0.000021 -0.000762 -0.000161  0.000790  0.000136
  8C   1dyz       0.000053 -0.000011 -0.000482  0.000889 -0.001262 -0.001761
[...]
      pz      :     0.005222  p :     0.021371
      px      :     0.009874
      py      :     0.006275

  8 C s       :     3.135769  s :     3.135769
      pz      :     0.989326  p :     2.915657
      px      :     0.985163
      py      :     0.941167
      dz2     :     0.020003  d :     0.092860
      dxz     :     0.009882
      dyz     :     0.014375
      dx2y2   :     0.020463
      dxy     :     0.028138
      f0      :     0.000903  f :     0.005337
      f+1     :     0.000385
      f-1     :     0.000597
      f+2     :     0.000567
      f-2     :     0.000482
      f+3     :     0.001499
      f-3     :     0.000903

  9 H s       :     0.899195  s :     0.899195
      pz      :     0.005261  p :     0.021334
      px      :     0.004784
      py      :     0.011289

 10 H s       :     0.917748  s :     0.917748
      pz      :     0.011769  p :     0.021203
      px      :     0.004622
      py      :     0.004812

 11 C s       :     3.104703  s :     3.104703
      pz      :     1.003162  p :     2.934231
      px      :     0.980918
      py      :     0.950151
      dz2     :     0.020962  d :     0.085707
      dxz     :     0.007010
      dyz     :     0.015019
      dx2y2   :     0.017148
      dxy     :     0.025569
      f0      :     0.000880  f :     0.005224
      f+1     :     0.000429
      f-1     :     0.000663
      f+2     :     0.000520
      f-2     :     0.000427
      f+3     :     0.001359
      f-3     :     0.000945

 12 H s       :     0.914064  s :     0.914064
      pz      :     0.011565  p :     0.021210
      px      :     0.004927
      py      :     0.004719

 13 H s       :     0.897565  s :     0.897565
      pz      :     0.005625  p :     0.021377
      px      :     0.009403
      py      :     0.006349

 14 C s       :     3.157920  s :     3.157920
      pz      :     0.901957  p :     2.515998
      px      :     0.963935
      py      :     0.650106
      dz2     :     0.039143  d :     0.180449
      dxz     :     0.023360
      dyz     :     0.028543
      dx2y2   :     0.044167
      dxy     :     0.045237
      f0      :     0.001250  f :     0.014996
      f+1     :     0.000923
      f-1     :     0.002804
      f+2     :     0.001989
      f-2     :     0.001775
      f+3     :     0.004353
      f-3     :     0.001902

 15 H s       :     0.895763  s :     0.895763
      pz      :     0.005185  p :     0.021503
      px      :     0.009918
      py      :     0.006399

 16 H s       :     0.914449  s :     0.914449
      pz      :     0.011791  p :     0.021309
      px      :     0.004824
      py      :     0.004694

 17 H s       :     0.956744  s :     0.956744
      pz      :     0.012947  p :     0.020523
      px      :     0.004650
      py      :     0.002926



                     *******************************
                     * LOEWDIN POPULATION ANALYSIS *
                     *******************************

----------------------
LOEWDIN ATOMIC CHARGES
----------------------
   0 C :   -0.259520
   1 C :   -0.242949
   2 H :    0.138521
   3 H :    0.136330
   4 C :   -0.262766
   5 F :    0.149067
   6 H :    0.134615
   7 H :    0.135144
   8 C :   -0.259522
   9 H :    0.134016
  10 H :    0.134612
  11 C :   -0.242956
  12 H :    0.134646
  13 H :    0.135110
  14 C :   -0.369924
  15 H :    0.136308
  16 H :    0.138537
  17 H :    0.130732

-------------------------------
LOEWDIN REDUCED ORBITAL CHARGES
-------------------------------
  0 C s       :     2.776569  s :     2.776569
      pz      :     1.023331  p :     3.043543
      px      :     1.010353
      py      :     1.009860
      dz2     :     0.104436  d :     0.400503
      dxz     :     0.038690
      dyz     :     0.059672
      dx2y2   :     0.090423
      dxy     :     0.107281
      f0      :     0.005182  f :     0.038905
      f+1     :     0.002787
      f-1     :     0.004167
      f+2     :     0.006685
      f-2     :     0.005796
      f+3     :     0.008168
      f-3     :     0.006119

  1 C s       :     2.781096  s :     2.781096
      pz      :     1.024870  p :     3.039199
      px      :     1.002184
      py      :     1.012145
      dz2     :     0.091886  d :     0.384682
      dxz     :     0.046431
      dyz     :     0.059545
      dx2y2   :     0.081498
      dxy     :     0.105322
      f0      :     0.005299  f :     0.037972
      f+1     :     0.002490
      f-1     :     0.003982
      f+2     :     0.005585
      f-2     :     0.006297
      f+3     :     0.008100
      f-3     :     0.006219

  2 H s       :     0.802133  s :     0.802133
      pz      :     0.033531  p :     0.059346
      px      :     0.012901
      py      :     0.012914

  3 H s       :     0.804236  s :     0.804236
      pz      :     0.016794  p :     0.059434
      px      :     0.025251
      py      :     0.017389

  4 C s       :     2.778169  s :     2.778169
      pz      :     1.022790  p :     3.045073
      px      :     1.017508
      py      :     1.004776
      dz2     :     0.102117  d :     0.400713
      dxz     :     0.067518
      dyz     :     0.032249
      dx2y2   :     0.120472
      dxy     :     0.078356
      f0      :     0.005232  f :     0.038811
      f+1     :     0.005109
      f-1     :     0.001699
      f+2     :     0.005912
      f-2     :     0.006466
      f+3     :     0.008331
      f-3     :     0.006063

  5 F s       :     3.600464  s :     3.600464
      pz      :     1.803024  p :     5.217240
      px      :     1.835842
      py      :     1.578374
      dz2     :     0.004768  d :     0.031747
      dxz     :     0.001052
      dyz     :     0.009338
      dx2y2   :     0.008788
      dxy     :     0.007801
      f0      :     0.000116  f :     0.001482
      f+1     :     0.000006
      f-1     :     0.000345
      f+2     :     0.000306
      f-2     :     0.000108
      f+3     :     0.000334
      f-3     :     0.000267

  6 H s       :     0.806378  s :     0.806378
      pz      :     0.032828  p :     0.059008
      px      :     0.013122
      py      :     0.013057

  7 H s       :     0.805823  s :     0.805823
      pz      :     0.015659  p :     0.059033
      px      :     0.026498
      py      :     0.016875

  8 C s       :     2.776542  s :     2.776542
      pz      :     1.023559  p :     3.043518
      px      :     1.010239
      py      :     1.009719
      dz2     :     0.094594  d :     0.400541
      dxz     :     0.048859
      dyz     :     0.058869
      dx2y2   :     0.089568
      dxy     :     0.108651
      f0      :     0.005451  f :     0.038922
      f+1     :     0.002366
      f-1     :     0.003962
      f+2     :     0.006220
      f-2     :     0.006083
      f+3     :     0.008817
      f-3     :     0.006024

  9 H s       :     0.806949  s :     0.806949
      pz      :     0.015811  p :     0.059035
      px      :     0.013118
      py      :     0.030106

 10 H s       :     0.806370  s :     0.806370
      pz      :     0.032835  p :     0.059018
      px      :     0.013160
      py      :     0.013023

 11 C s       :     2.781071  s :     2.781071
      pz      :     1.023589  p :     3.039169
      px      :     1.003415
      py      :     1.012166
      dz2     :     0.100742  d :     0.384730
      dxz     :     0.036800
      dyz     :     0.060406
      dx2y2   :     0.082557
      dxy     :     0.104225
      f0      :     0.005104  f :     0.037985
      f+1     :     0.002734
      f-1     :     0.004221
      f+2     :     0.005943
      f-2     :     0.006092
      f+3     :     0.007607
      f-3     :     0.006284

 12 H s       :     0.806348  s :     0.806348
      pz      :     0.032646  p :     0.059006
      px      :     0.013305
      py      :     0.013055

 13 H s       :     0.805855  s :     0.805855
      pz      :     0.016989  p :     0.059035
      px      :     0.024980
      py      :     0.017066

 14 C s       :     2.762234  s :     2.762234
      pz      :     0.980999  p :     2.796304
      px      :     1.038969
      py      :     0.776335
      dz2     :     0.165092  d :     0.702605
      dxz     :     0.073891
      dyz     :     0.118773
      dx2y2   :     0.173357
      dxy     :     0.171491
      f0      :     0.009195  f :     0.108781
      f+1     :     0.005368
      f-1     :     0.016170
      f+2     :     0.021486
      f-2     :     0.014654
      f+3     :     0.024409
      f-3     :     0.017499

 15 H s       :     0.804254  s :     0.804254
      pz      :     0.015409  p :     0.059438
      px      :     0.026815
      py      :     0.017213

 16 H s       :     0.802114  s :     0.802114
      pz      :     0.033322  p :     0.059350
      px      :     0.013104
      py      :     0.012924

 17 H s       :     0.812760  s :     0.812760
      pz      :     0.035190  p :     0.056508
      px      :     0.013341
      py      :     0.007977



                      *****************************
                      * MAYER POPULATION ANALYSIS *
                      *****************************

  NA   - Mulliken gross atomic population
  ZA   - Total nuclear charge
  QA   - Mulliken gross atomic charge
  VA   - Mayer's total valence
  BVA  - Mayer's bonded valence
  FA   - Mayer's free valence

  ATOM       NA         ZA         QA         VA         BVA        FA
  0 C      6.1500     6.0000    -0.1500     4.0529     4.0529    -0.0000
  1 C      6.1299     6.0000    -0.1299     3.9326     3.9326    -0.0000
  2 H      0.9360     1.0000     0.0640     0.9967     0.9967    -0.0000
  3 H      0.9173     1.0000     0.0827     0.9761     0.9761    -0.0000
  4 C      6.1239     6.0000    -0.1239     4.0422     4.0422    -0.0000
  5 F      9.1957     9.0000    -0.1957     1.0851     1.0851     0.0000
  6 H      0.9354     1.0000     0.0646     0.9806     0.9806    -0.0000
  7 H      0.9189     1.0000     0.0811     0.9706     0.9706    -0.0000
  8 C      6.1496     6.0000    -0.1496     4.0528     4.0528     0.0000
  9 H      0.9205     1.0000     0.0795     0.9702     0.9702    -0.0000
 10 H      0.9390     1.0000     0.0610     0.9808     0.9808    -0.0000
 11 C      6.1299     6.0000    -0.1299     3.9329     3.9329    -0.0000
 12 H      0.9353     1.0000     0.0647     0.9807     0.9807    -0.0000
 13 H      0.9189     1.0000     0.0811     0.9706     0.9706     0.0000
 14 C      5.8694     6.0000     0.1306     4.2313     4.2313    -0.0000
 15 H      0.9173     1.0000     0.0827     0.9761     0.9761    -0.0000
 16 H      0.9358     1.0000     0.0642     0.9966     0.9966    -0.0000
 17 H      0.9773     1.0000     0.0227     0.9641     0.9641    -0.0000

  Mayer bond orders larger than 0.100000
B(  0-C ,  1-C ) :   1.0177 B(  0-C ,  4-C ) :   1.0484 B(  0-C ,  6-H ) :   0.9459 
B(  0-C ,  7-H ) :   0.9366 B(  1-C ,  3-H ) :   0.9381 B(  1-C , 14-C ) :   1.0246 
B(  1-C , 16-H ) :   0.9353 B(  2-H , 11-C ) :   0.9353 B(  4-C ,  8-C ) :   1.0483 
B(  4-C ,  9-H ) :   0.9406 B(  4-C , 10-H ) :   0.9423 B(  5-F , 14-C ) :   1.1037 
B(  8-C , 11-C ) :   1.0176 B(  8-C , 12-H ) :   0.9460 B(  8-C , 13-H ) :   0.9366 
B( 11-C , 14-C ) :   1.0246 B( 11-C , 15-H ) :   0.9380 B( 14-C , 17-H ) :   0.9537 


-------
TIMINGS
-------

Total SCF time: 0 days 0 hours 0 min 8 sec 

Total time                  ....       8.644 sec
Sum of individual times     ....       7.994 sec  ( 92.5%)

SCF preparation             ....       0.024 sec  (  0.3%)
Fock matrix formation       ....       7.882 sec  ( 91.2%)
  Startup                   ....       0.001 sec  (  0.0% of F)
  Split-RI-J                ....       2.336 sec  ( 29.6% of F)
  XC integration            ....       6.177 sec  ( 78.4% of F)
    Basis function eval.    ....       1.968 sec  ( 31.9% of XC)
    Density eval.           ....       1.184 sec  ( 19.2% of XC)
    XC-Functional eval.     ....       0.132 sec  (  2.1% of XC)
    XC-Potential eval.      ....       2.765 sec  ( 44.8% of XC)
Diagonalization             ....       0.000 sec  (  0.0%)
Density matrix formation    ....       0.007 sec  (  0.1%)
Total Energy calculation    ....       0.006 sec  (  0.1%)
Population analysis         ....       0.004 sec  (  0.0%)
Orbital Transformation      ....       0.010 sec  (  0.1%)
Orbital Orthonormalization  ....       0.000 sec  (  0.0%)
DIIS solution               ....       0.044 sec  (  0.5%)
SOSCF solution              ....       0.015 sec  (  0.2%)
Finished LeanSCF after   8.7 sec

Maximum memory used throughout the entire LEANSCF-calculation: 30.4 MB

-------------------------   --------------------
FINAL SINGLE POINT ENERGY      -335.128624024058
-------------------------   --------------------


------------------------------------------------------------------------------
                              ORCA PROPERTY CALCULATIONS
------------------------------------------------------------------------------

GBWName                                 ... job.gbw
Number of atoms                         ...     18
Number of basis functions               ...    283
Max core memory                         ...  16384 MB

Electric properties:
Dipole moment                           ... YES
Quadrupole moment                       ...  NO
Static polarizability (Dipole/Dipole)   ...  NO
Static polarizability (Dipole/Quad.)    ...  NO
Static polarizability (Quad./Quad.)     ...  NO
Static polarizability (Velocity)        ...  NO
Static hyperpolarizability              ...  NO

Atomic electric properties:
Dipole moment                           ...  NO
Quadrupole moment                       ...  NO
Static polarizability                   ...  NO

Choice of electric origin               ... Center of mass
Position of electric origin             ...    -5.669552     2.503810     0.095320

General magnetic properties:
Magnetizability                         ...  NO

EPR properties:
g-Tensor (aka g-matrix)                 ...  NO
Zero-Field splitting spin-orbit         ...  NO
Zero-field splitting spin-spin          ...  NO
Hyperfine couplings                     ...  NO (   0 nuclei)
Quadrupole couplings                    ...  NO (   0 nuclei)
Contact density                         ...  NO (   0 nuclei)

NMR properties:
Chemical shifts                         ...  NO (   0 nuclei)
Spin-rotation constants                 ...  NO (   0 nuclei)
Spin-spin couplings                     ...  NO (   0 nuclei,    0 pairs)

Choice of magnetic origin               ... GIAO
Position of magnetic origin             ...     0.000000     0.000000     0.000000

Properties with geometric perturbations:
SCF Hessian                             ...  NO
IR spectrum                             ...  NO
VCD spectrum                            ...  NO
X-ray spectroscopy properties:
SCF XES/XAS/RIXS spectra                ...  NO

SCF SOC stabilization energy            ...  NO
Diagonal Born-Oppenheimer correction    ...  NO

-------------
DIPOLE MOMENT
-------------

Method             : SCF
Type of density    : Electron Density
Multiplicity       :   1
Irrep              :   0
Energy             :  -335.1286240240581833 Eh
Basis              : AO
                                X                 Y                 Z
Electronic contribution:      0.025281596      -8.611892616       0.566738598
Nuclear contribution   :     -0.020252734       9.289447150      -0.738319109
                        -----------------------------------------
Total Dipole Moment    :      0.005028863       0.677554533      -0.171580511
                        -----------------------------------------
Magnitude (a.u.)       :      0.698960161
Magnitude (Debye)      :      1.776615540



--------------------
Rotational spectrum 
--------------------
 
Rotational constants in cm-1:             0.143576             0.074159             0.053554 
Rotational constants in MHz :          4304.311667          2223.223606          1605.506556 

Dipole components along the rotational axes: 
x,y,z [a.u.] :     0.684188     0.000036    -0.142942 
x,y,z [Debye]:     1.739067     0.000092    -0.363329 

 

Dipole moment calculation done in   0.0 sec 

Maximum memory used throughout the entire PROP-calculation: 21.8 MB

--------------------------------
SUGGESTED CITATIONS FOR THIS RUN
--------------------------------

Below you find a list of papers that are relevant to this ORCA run
We neither can nor want to force you to cite these papers, but we appreciate if you do
You receive ORCA, which is the product of decades of hard work by many enthusiastic individuals, for free
The only thing we kindly ask in return is that you cite our papers,
We deeply appreciate it, if you show your appreciation for ORCA by not just citing the generic ORCA reference.

Please note that relegating all ORCA citations to the supporting information does *not* help us.
SI sections are not indexed - citations you put there will not count into any citation statistics
But we need these citations in order to attract the funding resources that allow us to do what we are doing

Therefore, if you are a happy ORCA user, please consider citing a few of the papers listed below in the main body of your paper

In addition to the list printed below, the program has created the file job.bibtex that contains the list in bibtex format
You can import this file easily into all common literature databanks and citation aid programs


List of essential papers. We consider these as the minimum necessary citations

  1. Neese, F.
     Software update: the ORCA program system, version 6.0
     WIRES Comput. Molec. Sci. 2025 15(1), e70019
     doi.org/10.1002/wcms.7019

List of papers to cite with high priority. The work reported in these papers was absolutely
necessary for this run to complete.
Our perspective: the developers of density functionals and basis sets usually get cited in chemistry papers
Good! But without the algorithms to do something with them, the functionals or basis sets would not do anything.
Hence, in our opinion, the algorithm design and method developments papers are equally worthy of getting cited

  1. Neese, F.
     An improvement of the resolution of the identity approximation for the formation of the Coulomb matrix
     J. Comp. Chem. 2003 24(14), 1740-1747
     doi.org/10.1002/jcc.10318
  2. Neese, F.
     The SHARK Integral Generation and Digestion System
     J. Comp. Chem. 2022 44(3), 381
     doi.org/10.1002/jcc.26942

List of suggested additional citations. These are papers that are important in the 'surrounding' of 
of this run, or papers that preceded the highly important papers. If you like your results we are grateful for a citation.

  1. Neese, F.
     The ORCA program system
     WIRES Comput. Molec. Sci. 2012 2(1), 73-78
     doi.org/10.1002/wcms.81
  2. Neese, F.
     Software update: the ORCA program system, version 4.0
     WIRES Comput. Molec. Sci. 2018 8(1), 1-6
     doi.org/10.1002/wcms.1327
  3. Neese, F.; Wennmohs, F.; Becker, U.; Riplinger, C.
     The ORCA quantum chemistry program package
     J. Chem. Phys. 2020 152(22), 224108
     doi.org/10.1063/5.0004608
  4. Neese, F.
     Software update: The ORCA program system—Version 5.0
     WIRES Comput. Molec. Sci. 2022 12(1), e1606
     doi.org/10.1002/wcms.1606

List of optional additional citations

  1. Neese, F.
     Approximate second-order SCF convergence for spin unrestricted wavefunctions
     Chem. Phys. Lett. 2000 325(1-3), 93-98
     doi.org/10.1016/s0009-2614(00)00662-x

Timings for individual modules:

Sum of individual times          ...        9.639 sec (=   0.161 min)
Startup calculation              ...        0.422 sec (=   0.007 min)   4.4 %
SCF iterations                   ...        9.158 sec (=   0.153 min)  95.0 %
Property calculations            ...        0.059 sec (=   0.001 min)   0.6 %
                             ****ORCA TERMINATED NORMALLY****
TOTAL RUN TIME: 0 days 0 hours 0 minutes 9 seconds 699 msec
