
                                 *****************
                                 * O   R   C   A *
                                 *****************

                                            #,                                       
                                            ###                                      
                                            ####                                     
                                            #####                                    
                                            ######                                   
                                           ########,                                 
                                     ,,################,,,,,                         
                               ,,#################################,,                 
                          ,,##########################################,,             
                       ,#########################################, ''#####,          
                    ,#############################################,,   '####,        
                  ,##################################################,,,,####,       
                ,###########''''           ''''###############################       
              ,#####''   ,,,,##########,,,,          '''####'''          '####       
            ,##' ,,,,###########################,,,                        '##       
           ' ,,###''''                  '''############,,,                           
         ,,##''                                '''############,,,,        ,,,,,,###''
      ,#''                                            '''#######################'''  
     '                                                          ''''####''''         
             ,#######,   #######,   ,#######,      ##                                
            ,#'     '#,  ##    ##  ,#'     '#,    #''#        ,####,    ,#,          
            ##       ##  ##   ,#'  ##            #'  '#       #'       ,# #          
            ##       ##  #######   ##           ,######,      #####,      #          
            '#,     ,#'  ##    ##  '#,     ,#' ,#      #,     #,   #      #          
             '#######'   ##     ##  '#######'  #'      '#     '####' #    #          



                #########################################################
                #                        -***-                          #
                #          Department of theory and spectroscopy        #
                #                                                       #
                #                      Frank Neese                      #
                #                                                       #
                #     Directorship, Architecture, Infrastructure        #
                #                    SHARK, DRIVERS                     #
                #        Core code/Algorithms in most modules           #
                #                                                       #
                #        Max Planck Institute fuer Kohlenforschung      #
                #                Kaiser Wilhelm Platz 1                 #
                #                 D-45470 Muelheim/Ruhr                 #
                #                      Germany                          #
                #                                                       #
                #                  All rights reserved                  #
                #                        -***-                          #
                #########################################################


                         Program Version 6.1.0  -  RELEASE   -
                                (GIT: $679e74b7b5$)
                          ($2025-06-10 18:02:51 +0200$)


 With contributions from (in alphabetic order):
[Max-Planck-Institut fuer Kohlenforschung]                               
  Daniel Aravena         : Magnetic Suceptibility                        
  Michael Atanasov       : Ab Initio Ligand Field Theory (pilot matlab implementation)
  Alexander A. Auer      : GIAO ZORA, VPT2 properties, NMR spectrum      
  Ute Becker             : All parallelization in ORCA, NUMFREQ, NUMCALC 
  Giovanni Bistoni       : ED, misc. LED, open-shell LED, HFLD           
  Dmytro Bykov           : pre 5.0 version of the SCF Hessian            
  Marcos Casanova-Páez   : Triplet and SCS-CIS(D). UHF-(DLPNO)-IP/EA/STEOM-CCSD. UHF-CVS-IP/STEOM-CCSD   
  Vijay G. Chilkuri      : MRCI spin determinant printing, contributions to CSF-ICE 
  Pauline Colinet        : FMM embedding                                 
  Dipayan Datta          : RHF DLPNO-CCSD density                        
  Achintya Kumar Dutta   : EOM-CC, STEOM-CC                              
  Nicolas Foglia         : Exact transition moments, OPA infrastructure, MCD improvements    
  Dmitry Ganyushin       : Spin-Orbit,Spin-Spin,Magnetic field MRCI      
  Miquel Garcia-Rates    : C-PCM and meta-GGA Hessian, CCSD/C-PCM, Gaussian charge scheme 
  Tiago L. C. Gouveia    : GS-ROHF, GS-ROCIS                             
  Yang Guo               : DLPNO-NEVPT2, F12-NEVPT2, CIM, IAO-localization        
  Andreas Hansen         : Spin unrestricted coupled pair/coupled cluster methods 
  Ingolf Harden          : AUTO-CI MPn and infrastructure                
  Benjamin Helmich-Paris : MC-RPA, TRAH-(SCF,CASSCF), AVAS, COSX integrals, SCF dyn. polar., MC-PDFT, srDFT 
  Lee Huntington         : MR-EOM, pCC                                   
  Robert Izsak           : Overlap fitted RIJCOSX, COSX-SCS-MP3, EOM     
  Riya Kayal             : Wick's Theorem for AUTO-CI, AUTO-CI UHF-CCSDT 
  Emily Kempfer          : AUTO-CI RHF CISDT and CCSDT, approximate NEVPT4
  Christian Kollmar      : KDIIS, OOCD, Brueckner-CCSD(T), CCSD density, CASPT2, CASPT2-K, improved NEVPT2 
  Axel Koslowski         : Symmetry handling                             
  Simone Kossmann        : meta-GGA functionals, TD-DFT gradient, OOMP2, (MP2 Hessian; deprecated post 5.0) 
  Lucas Lang             : DCDCAS, Hyperfine gauge corrections, ICE-SOC+SSC
  Marvin Lechner         : AUTO-CI (C++ implementation), FIC-MRCC        
  Spencer Leger          : CASSCF response                               
  Dagmar Lenk            : GEPOL surface, SMD, ORCA-2-JSON               
  Dimitrios Liakos       : Extrapolation schemes; Compound Job, Property file
  Dimitrios Manganas     : Further ROCIS development; embedding schemes. LFT, Crystal Embedding 
  Dimitrios Pantazis     : SARC Basis sets                               
  Anastasios Papadopoulos: AUTO-CI, single reference methods and gradients 
  Taras Petrenko         : pre 6.0 DFT Hessian and TD-DFT gradient,  ECA, NRVS 
  Petra Pikulova         : Analytic Raman intensities                    
  Peter Pinski           : DLPNO-MP2, DLPNO-MP2 Gradient                 
  Shashank Vittal Rao    : ES-AILFT, MagRelax                            
  Christoph Reimann      : Effective Core Potentials                     
  Marius Retegan         : Local ZFS, SOC                                
  Christoph Riplinger    : Optimizer, TS searches, QM/MM, DLPNO-CCSD(T), (RO)-DLPNO pert. Triples 
  Michael Roemelt        : Original ROCIS implementation, recursive CI coupling coefficients
  Masaaki Saitow         : Open-shell DLPNO-CCSD energy and density      
  Barbara Sandhoefer     : DKH picture change effects                    
  Yorick L. A. Schmerwitz: GMF and freeze-and-release deltaSCF, NEB S-IDPP initial path                    
  Kantharuban Sivalingam : CASSCF convergence/infrastructure, NEVPT2, NEVPT3, NEVPT4(SD), FIC-MRCI and CEPA variants
  Bernardo de Souza      : ESD, SOC TD-DFT                               
  Georgi L. Stoychev     : AutoAux, RI-MP2 NMR, DLPNO-MP2 response, X2C  
  Van Anh Tran           : RI-MP2 g-tensors                              
  Willem Van den Heuvel  : Paramagnetic NMR                              
  Zikuan Wang            : NOTCH, Electric field optimization            
  Frank Wennmohs         : Technical directorship and infrastructure     
  Hang Xu                : AUTO-CI-Response properties                   
                                                                         
[FACCTs GmbH]                                                            
  Markus Bursch, Nicolas Foglia, Miquel Garcia-Rates, Ingolf Harden, Hagen Neugebauer, Anastasios Papadopoulos, 
  Christoph Riplinger, Bernardo de Souza, Georgi L. Stoychev                                                    
                                                                 
  APM, various basis sets, CI-OPT, improved COSX, DLPNO-Multilevel,           
  DOCKER, DRACO, updates on ESD, Fragmentator, GOAT, IRC, LR-CPCM, L-BFGS, MBIS, meta-GGA TD-DFT gradient, ML-optimized integration grids, 
  MM, NACMEs, nearIR, NEB, NEB-TS, NL-DFT gradient (VV10), 2- and 3-layer-ONIOM, interface openCOSMO-RS, QMMM,   
  Crystal-QMMM, RESP, rigid body optimization, SF, symmetry and pop. for TD-DFT, various functionals, SOLVATOR                                   
                                                                         
[Other institutions]                                                     
  V. Asgeirsson          : NEB                                           
  Christoph Bannwarth    : sTDA-DFT, sTD-DFT, PBEh-3c, B97-3c, D3        
  Giovanni Bistoni       : ETS/NOCV, ADLD/ADEX, COVALED                  
  Martin Brehm           : Molecular dynamics                            
  Ronald Cardenas        : ETS/NOCV                                      
  Martina Colucci        : COVALED                                       
  Sebastian Ehlert       : rSCAN, r2SCAN, r2SCAN-3c, D4, dhf basis sets  
  Marvin Friede          : D4 for Fr, Ra, Ac-Lr                          
  Lars Goerigk           : TD-DFT with DH, B97 family of functionals     
  Stefan Grimme          : VdW corrections, initial TS optimization, DFT functionals, gCP, sTDA/sTD-DF 
  Waldemar Hujo          : DFT-NL                                        
  H. Jonsson             : NEB                                           
  Holger Kruse           : gCP                                           
  Marcel Mueller         : wB97X-3c, vDZP basis set                      
  Hagen Neugebauer       : wr2SCAN, Native XTB                           
  Gianluca Regni         : ADLD/ADEX                                     
  Tobias Risthaus        : pre 6.0 range-separated hybrid DFT and stability analysis
  Lukas Wittmann         : regularized MP2, r2SCAN double-hybrids, wr2SCAN        
                                                                         
We gratefully acknowledge several colleagues who have allowed us to      
interface, adapt or use parts of their codes:                            
  Ed Valeev, F. Pavosevic, A. Kumar             : LibInt (2-el integral package), F12 methods 
  Garnet Chan, S. Sharma, J. Yang, R. Olivares  : DMRG                   
  Ulf Ekstrom                                   : XCFun DFT Library      
  Mihaly Kallay                                 : mrcc  (arbitrary order and MRCC methods)
  Frank Weinhold                                : gennbo (NPA and NBO analysis)           
  Simon Mueller                                 : openCOSMO-RS                            
  Christopher J. Cramer and Donald G. Truhlar   : smd solvation model                     
  S Lehtola, MJT Oliveira, MAL Marques          : LibXC Library                           
  Liviu Ungur et al                             : ANISO software                          


 Your calculation uses the libint2 library for the computation of 2-el integrals
 For citations please refer to: http://libint.valeyev.net

 Your ORCA version has been built with support for libXC version: 7.0.0
 For citations please refer to: https://libxc.gitlab.io

 This ORCA versions uses:
   CBLAS   interface :  Fast vector & matrix operations
   LAPACKE interface :  Fast linear algebra routines
   SCALAPACK package :  Parallel linear algebra routines
   Shared memory     :  Shared parallel matrices


  ***********************************
  * Starting time: Wed Jul  9 19:38:40 2025
  * Host name:     MacBook-Air-3.local
  * Process ID:    76413
  * Working dir.:  /Users/blenl/Desktop/Folders/Projects/DFT2/others/chlorine/geom_optimization
  ***********************************

NOTE: MaxCore=16384 MB was set to SCF,MP2,MDCI,CIPSI,MRCI,RASCI and CIS
      => If you want to overwrite this, your respective input block should be placed after the MaxCore statement
Warning: RI is on but no J-basis has been assigned. Assigning Def2/J (nothing to worry about!)
================================================================================

----- Orbital basis set information -----
Your calculation utilizes the basis: def2-TZVP
   F. Weigend and R. Ahlrichs, Phys. Chem. Chem. Phys. 7, 3297 (2005).

----- AuxJ basis set information -----
Your calculation utilizes the auxiliary basis: def2/J
   H-Rn: F. Weigend, Phys. Chem. Chem. Phys. 8, 1057 (2006).
   Fr-Lr: K. Eichkorn, F. Weigend, O. Treutler, R. Ahlrichs; Theor. Chem. Acc. 97, 119 (1997).

================================================================================
                                        WARNINGS
                       Please study these warnings very carefully!
================================================================================


WARNING: Geometry Optimization
  ===> : Switching off AutoStart
         For restart on a previous wavefunction, please use MOREAD

================================================================================
                                       INPUT FILE
================================================================================
NAME = job.inp
|  1> # avogadro generated ORCA file
|  2> # C6H11Cl | Geometry Optimization | revPBE/def2-TZVP
|  3> # 
|  4> ! Opt revPBE def2-TZVP 
|  5> 
|  6> %maxcore 16384
|  7> 
|  8> %pal
|  9>    nprocs 1
| 10> end
| 11> 
| 12> * xyz 0 1
| 13>    C     -5.064520    2.558878    0.077069
| 14>    C     -5.098769    1.049286    0.338269
| 15>    H     -1.896050    0.566098   -0.812920
| 16>    H     -2.605575    2.473334    1.358662
| 17>    C     -3.700342    3.072538   -0.386695
| 18>    C     -3.999523    0.319826   -0.427022
| 19>    H     -5.813513    2.820929   -0.679991
| 20>    H     -5.364302    3.080194    0.994637
| 21>    H     -1.593452    2.718874   -0.055627
| 22>    H     -4.977082    0.872000    1.415245
| 23>    H     -6.088991    0.660727    0.070508
| 24>    C     -2.607499    0.809244   -0.013302
| 25>    H     -3.621627    2.966794   -1.476242
| 26>    Cl    -4.128374   -1.443631   -0.175904
| 27>    C     -2.557102    2.313741    0.273751
| 28>    H     -2.250605    0.281430    0.880551
| 29>    H     -3.618893    4.144014   -0.171188
| 30>    H     -4.138757    0.482087   -1.502218
| 31> *
| 32> 
| 33> 
| 34> 
| 35>                          ****END OF INPUT****
================================================================================

                       *****************************
                       * Geometry Optimization Run *
                       *****************************

Geometry optimization settings:
Update method            Update   .... BFGS
Choice of coordinates    CoordSys .... (2022) Redundant Internals
Initial Hessian          InHess   .... Almloef's Model
Max. no of cycles        MaxIter  .... 54

Convergence Tolerances:
Energy Change            TolE     ....  5.0000e-06 Eh
Max. Gradient            TolMAXG  ....  3.0000e-04 Eh/bohr
RMS Gradient             TolRMSG  ....  1.0000e-04 Eh/bohr
Max. Displacement        TolMAXD  ....  4.0000e-03 bohr
RMS Displacement         TolRMSD  ....  2.0000e-03 bohr
Strict Convergence                .... False

------------------------------------------------------------------------------
                        ORCA OPTIMIZATION COORDINATE SETUP
------------------------------------------------------------------------------

The optimization will be done in redundant internal coordinates (2022)
Making redundant internal coordinates   ...  (2022 redundants) done
Evaluating the initial hessian          ...  (Almloef) done
Evaluating the coordinates              ...  done
Calculating the B-matrix                .... done
Calculating the G-matrix                .... done
The number of degrees of freedom        ....   90

    -----------------------------------------------------------------
                    Redundant Internal Coordinates


    -----------------------------------------------------------------
         Definition                    Initial Value    Approx d2E/dq
    -----------------------------------------------------------------
      1. B(C   1,C   0)                  1.5324         0.370288   
      2. B(C   4,C   0)                  1.5297         0.374021   
      3. B(C   5,C   1)                  1.5252         0.380271   
      4. B(H   6,C   0)                  1.0967         0.351315   
      5. B(H   7,C   0)                  1.0971         0.350863   
      6. B(H   9,C   1)                  1.0982         0.349372   
      7. B(H  10,C   1)                  1.0969         0.351073   
      8. B(C  11,C   5)                  1.5325         0.370218   
      9. B(C  11,H   2)                  1.0976         0.350219   
     10. B(H  12,C   4)                  1.0975         0.350323   
     11. B(Cl 13,C   5)                  1.7859         0.327416   
     12. B(C  14,H   8)                  1.0960         0.352233   
     13. B(C  14,C   4)                  1.5228         0.383569   
     14. B(C  14,C  11)                  1.5325         0.370206   
     15. B(C  14,H   3)                  1.0977         0.350112   
     16. B(H  15,C  11)                  1.0977         0.350063   
     17. B(H  16,C   4)                  1.0960         0.352296   
     18. B(H  17,C   5)                  1.0962         0.351928   
     19. A(C   4,C   0,H   6)          108.6347         0.323070   
     20. A(C   1,C   0,H   7)          108.6294         0.322471   
     21. A(C   1,C   0,C   4)          113.7287         0.362877   
     22. A(C   1,C   0,H   6)          109.7417         0.322539   
     23. A(C   4,C   0,H   7)          109.7366         0.323002   
     24. A(H   6,C   0,H   7)          106.0924         0.288537   
     25. A(H   9,C   1,H  10)          106.3929         0.288314   
     26. A(C   0,C   1,H  10)          109.1186         0.322503   
     27. A(C   5,C   1,H   9)          109.5723         0.323655   
     28. A(C   0,C   1,C   5)          111.6864         0.363907   
     29. A(C   5,C   1,H  10)          111.0222         0.323913   
     30. A(C   0,C   1,H   9)          108.8869         0.322246   
     31. A(C   0,C   4,H  12)          109.4262         0.322921   
     32. A(C  14,C   4,H  16)          110.2476         0.324558   
     33. A(C   0,C   4,C  14)          111.7592         0.365070   
     34. A(C   0,C   4,H  16)          109.5698         0.323218   
     35. A(H  12,C   4,H  16)          106.5039         0.288594   
     36. A(H  12,C   4,C  14)          109.1903         0.324259   
     37. A(C   1,C   5,C  11)          111.4986         0.363895   
     38. A(C  11,C   5,H  17)          109.4441         0.322622   
     39. A(Cl 13,C   5,H  17)          105.9562         0.329321   
     40. A(C   1,C   5,H  17)          109.2570         0.324043   
     41. A(C  11,C   5,Cl 13)          110.0555         0.370069   
     42. A(C   1,C   5,Cl 13)          110.4700         0.371778   
     43. A(C  14,C  11,H  15)          107.9894         0.322339   
     44. A(C   5,C  11,H  15)          111.1991         0.322341   
     45. A(H   2,C  11,H  15)          106.0200         0.288293   
     46. A(H   2,C  11,C   5)          108.7457         0.322364   
     47. A(C   5,C  11,C  14)          113.2025         0.362231   
     48. A(H   2,C  11,C  14)          109.4288         0.322363   
     49. A(H   8,C  14,C  11)          109.6041         0.322666   
     50. A(C   4,C  14,C  11)          112.5361         0.364431   
     51. A(H   3,C  14,C  11)          109.0521         0.322346   
     52. A(C   4,C  14,H   8)          110.2155         0.324549   
     53. A(H   3,C  14,H   8)          106.3866         0.288558   
     54. A(H   3,C  14,C   4)          108.8483         0.324227   
     55. D(H   9,C   1,C   0,H   7)    -24.3843         0.010960   
     56. D(C   5,C   1,C   0,C   4)    -23.0099         0.010960   
     57. D(H   9,C   1,C   0,C   4)     98.1266         0.010960   
     58. D(H   9,C   1,C   0,H   6)   -139.9635         0.010960   
     59. D(C   5,C   1,C   0,H   7)   -145.5208         0.010960   
     60. D(C   5,C   1,C   0,H   6)     98.8999         0.010960   
     61. D(H  12,C   4,C   0,C   1)     86.1524         0.011169   
     62. D(C  14,C   4,C   0,H   7)     86.9837         0.011169   
     63. D(C  14,C   4,C   0,H   6)   -157.4369         0.011169   
     64. D(C  14,C   4,C   0,C   1)    -34.9156         0.011169   
     65. D(H  12,C   4,C   0,H   6)    -36.3689         0.011169   
     66. D(H  12,C   4,C   0,H   7)   -151.9484         0.011169   
     67. D(C  11,C   5,C   1,H   9)    -60.1301         0.011524   
     68. D(C  11,C   5,C   1,C   0)     60.6076         0.011524   
     69. D(C  11,C   5,C   1,H  10)   -177.3575         0.011524   
     70. D(Cl 13,C   5,C   1,H  10)    -54.6435         0.011524   
     71. D(Cl 13,C   5,C   1,H   9)     62.5840         0.011524   
     72. D(Cl 13,C   5,C   1,C   0)   -176.6784         0.011524   
     73. D(C  14,C  11,C   5,H  17)     84.1345         0.010956   
     74. D(C  14,C  11,C   5,Cl 13)   -159.8110         0.010956   
     75. D(C  14,C  11,C   5,C   1)    -36.8599         0.010956   
     76. D(H   2,C  11,C   5,H  17)    -37.7124         0.010956   
     77. D(H   2,C  11,C   5,Cl 13)     78.3421         0.010956   
     78. D(H   2,C  11,C   5,C   1)   -158.7068         0.010956   
     79. D(H   8,C  14,C   4,H  16)    -56.3995         0.011715   
     80. D(H   8,C  14,C   4,H  12)     60.2795         0.011715   
     81. D(H   8,C  14,C   4,C   0)   -178.5158         0.011715   
     82. D(H   3,C  14,C   4,H  16)     59.9199         0.011715   
     83. D(H   3,C  14,C   4,H  12)    176.5989         0.011715   
     84. D(H   3,C  14,C  11,H   2)   -138.9588         0.010955   
     85. D(H   3,C  14,C   4,C   0)    -62.1963         0.011715   
     86. D(C   4,C  14,C  11,H  15)   -144.8713         0.010955   
     87. D(C   4,C  14,C  11,C   5)    -21.3091         0.010955   
     88. D(C   4,C  14,C  11,H   2)    100.1543         0.010955   
     89. D(H   3,C  14,C  11,H  15)    -23.9845         0.010955   
     90. D(H   3,C  14,C  11,C   5)     99.5777         0.010955   
    -----------------------------------------------------------------

Number of atoms                         .... 18
Number of degrees of freedom            .... 90


         *************************************************************
         *                GEOMETRY OPTIMIZATION CYCLE   1            *
         *************************************************************
---------------------------------
CARTESIAN COORDINATES (ANGSTROEM)
---------------------------------
  C     -5.064520    2.558878    0.077069
  C     -5.098769    1.049286    0.338269
  H     -1.896050    0.566098   -0.812920
  H     -2.605575    2.473334    1.358662
  C     -3.700342    3.072538   -0.386695
  C     -3.999523    0.319826   -0.427022
  H     -5.813513    2.820929   -0.679991
  H     -5.364302    3.080194    0.994637
  H     -1.593452    2.718874   -0.055627
  H     -4.977082    0.872000    1.415245
  H     -6.088991    0.660727    0.070508
  C     -2.607499    0.809244   -0.013302
  H     -3.621627    2.966794   -1.476242
  Cl    -4.128374   -1.443631   -0.175904
  C     -2.557102    2.313741    0.273751
  H     -2.250605    0.281430    0.880551
  H     -3.618893    4.144014   -0.171188
  H     -4.138757    0.482087   -1.502218

----------------------------
CARTESIAN COORDINATES (A.U.)
----------------------------
  NO LB      ZA    FRAG     MASS         X           Y           Z
   0 C     6.0000    0    12.011   -9.570556    4.835579    0.145639
   1 C     6.0000    0    12.011   -9.635277    1.982863    0.639236
   2 H     1.0000    0     1.008   -3.583015    1.069770   -1.536196
   3 H     1.0000    0     1.008   -4.923823    4.673924    2.567499
   4 C     6.0000    0    12.011   -6.992633    5.806255   -0.730748
   5 C     6.0000    0    12.011   -7.558003    0.604384   -0.806955
   6 H     1.0000    0     1.008  -10.985947    5.330783   -1.284997
   7 H     1.0000    0     1.008  -10.137062    5.820723    1.879592
   8 H     1.0000    0     1.008   -3.011188    5.137927   -0.105120
   9 H     1.0000    0     1.008   -9.405322    1.647841    2.674425
  10 H     1.0000    0     1.008  -11.506525    1.248593    0.133241
  11 C     6.0000    0    12.011   -4.927459    1.529250   -0.025137
  12 H     1.0000    0     1.008   -6.843883    5.606428   -2.789693
  13 Cl   17.0000    0    35.453   -7.801496   -2.728067   -0.332410
  14 C     6.0000    0    12.011   -4.832222    4.372337    0.517314
  15 H     1.0000    0     1.008   -4.253027    0.531826    1.664000
  16 H     1.0000    0     1.008   -6.838717    7.831052   -0.323498
  17 H     1.0000    0     1.008   -7.821117    0.911012   -2.838781

--------------------------------
INTERNAL COORDINATES (ANGSTROEM)
--------------------------------
 C      0   0   0     0.000000000000     0.00000000     0.00000000
 C      1   0   0     1.532405442585     0.00000000     0.00000000
 H      2   1   0     3.437457745199    93.47230194     0.00000000
 H      1   2   3     2.774204193388    84.87612677   312.37438965
 C      1   2   3     1.529674886693   113.72870776   354.52551021
 C      2   1   3     1.525163589520   111.68639242   342.46454363
 H      1   2   3     1.096722883982   109.74170225   116.43540419
 H      1   2   3     1.097073677564   108.62935613   232.01463308
 H      4   1   2     1.756387267732    97.72787893   107.68715571
 H      2   1   3     1.098232833392   108.88686871   103.60111349
 H      2   1   3     1.096910962151   109.11861046   219.34120134
 C      3   2   1     1.097573962356    28.47101311    86.82857206
 H      5   1   2     1.097492829120   109.42616176    86.15237057
 Cl     6   2   1     1.785901290938   110.46995752   183.32163284
 C      9   4   1     1.096012744941    36.83882782   331.36780624
 H     12   3   2     1.097694917288   106.02003471   137.98108320
 H      5   1   2     1.095964426989   109.56977058   202.57999526
 H      6   2   1     1.096248684055   109.25701995   299.50404335

---------------------------
INTERNAL COORDINATES (A.U.)
---------------------------
 C      0   0   0     0.000000000000     0.00000000     0.00000000
 C      1   0   0     2.895826612617     0.00000000     0.00000000
 H      2   1   0     6.495853735352    93.47230194     0.00000000
 H      1   2   3     5.242486165079    84.87612677   312.37438965
 C      1   2   3     2.890666609787   113.72870776   354.52551021
 C      2   1   3     2.882141493621   111.68639242   342.46454363
 H      1   2   3     2.072505895530   109.74170225   116.43540419
 H      1   2   3     2.073168799330   108.62935613   232.01463308
 H      4   1   2     3.319090921119    97.72787893   107.68715571
 H      2   1   3     2.075359286392   108.88686871   103.60111349
 H      2   1   3     2.072861311761   109.11861046   219.34120134
 C      3   2   1     2.074114200575    28.47101311    86.82857206
 H      5   1   2     2.073960880979   109.42616176    86.15237057
 Cl     6   2   1     3.374864342089   110.46995752   183.32163284
 C      9   4   1     2.071163927226    36.83882782   331.36780624
 H     12   3   2     2.074342772273   106.02003471   137.98108320
 H      5   1   2     2.071072619530   109.56977058   202.57999526
 H      6   2   1     2.071609787536   109.25701995   299.50404335

---------------------
BASIS SET INFORMATION
---------------------
There are 3 groups of distinct atoms

 Group   1 Type C   : 11s6p2d1f contracted to 5s3p2d1f pattern {62111/411/11/1}
 Group   2 Type H   : 5s1p contracted to 3s1p pattern {311/1}
 Group   3 Type Cl  : 14s9p3d1f contracted to 5s5p2d1f pattern {73211/51111/21/1}

Atom   0C    basis set group =>   1
Atom   1C    basis set group =>   1
Atom   2H    basis set group =>   2
Atom   3H    basis set group =>   2
Atom   4C    basis set group =>   1
Atom   5C    basis set group =>   1
Atom   6H    basis set group =>   2
Atom   7H    basis set group =>   2
Atom   8H    basis set group =>   2
Atom   9H    basis set group =>   2
Atom  10H    basis set group =>   2
Atom  11C    basis set group =>   1
Atom  12H    basis set group =>   2
Atom  13Cl   basis set group =>   3
Atom  14C    basis set group =>   1
Atom  15H    basis set group =>   2
Atom  16H    basis set group =>   2
Atom  17H    basis set group =>   2
---------------------------------
AUXILIARY/J BASIS SET INFORMATION
---------------------------------
There are 3 groups of distinct atoms

 Group   1 Type C   : 12s5p4d2f1g contracted to 6s4p3d1f1g pattern {711111/2111/211/2/1}
 Group   2 Type H   : 5s2p1d contracted to 3s1p1d pattern {311/2/1}
 Group   3 Type Cl  : 14s5p5d2f1g contracted to 8s4p3d1f1g pattern {71111111/2111/311/2/1}

Atom   0C    basis set group =>   1
Atom   1C    basis set group =>   1
Atom   2H    basis set group =>   2
Atom   3H    basis set group =>   2
Atom   4C    basis set group =>   1
Atom   5C    basis set group =>   1
Atom   6H    basis set group =>   2
Atom   7H    basis set group =>   2
Atom   8H    basis set group =>   2
Atom   9H    basis set group =>   2
Atom  10H    basis set group =>   2
Atom  11C    basis set group =>   1
Atom  12H    basis set group =>   2
Atom  13Cl   basis set group =>   3
Atom  14C    basis set group =>   1
Atom  15H    basis set group =>   2
Atom  16H    basis set group =>   2
Atom  17H    basis set group =>   2
------------------------------------------------------------------------------
                             ORCA STARTUP CALCULATIONS
                           -- RI-GTO INTEGRALS CHOSEN --
------------------------------------------------------------------------------
------------------------------------------------------------------------------
                   ___                                                        
                  /   \      - P O W E R E D   B Y -                         
                 /     \                                                     
                 |  |  |   _    _      __       _____    __    __             
                 |  |  |  | |  | |    /  \     |  _  \  |  |  /  |          
                  \  \/   | |  | |   /    \    | | | |  |  | /  /          
                 / \  \   | |__| |  /  /\  \   | |_| |  |  |/  /          
                |  |  |   |  __  | /  /__\  \  |    /   |      \           
                |  |  |   | |  | | |   __   |  |    \   |  |\   \          
                \     /   | |  | | |  |  |  |  | |\  \  |  | \   \       
                 \___/    |_|  |_| |__|  |__|  |_| \__\ |__|  \__/        
                                                                              
                      - O R C A' S   B I G   F R I E N D -                    
                                      &                                       
                       - I N T E G R A L  F E E D E R -                       
                                                                              
 v1 FN, 2020, v2 2021, v3 2022-2024                                           
------------------------------------------------------------------------------


----------------------
SHARK INTEGRAL PACKAGE
----------------------

Number of atoms                             ...     18
Number of basis functions                   ...    289
Number of shells                            ...    123
Maximum angular momentum                    ...      3
Integral batch strategy                     ... SHARK/LIBINT Hybrid
RI-J (if used) integral strategy            ... SPLIT-RIJ (Revised 2003 algorithm where possible)
Printlevel                                  ...      1
Contraction scheme used                     ... SEGMENTED contraction
Prescreening option                         ... SCHWARTZ
   Thresh                                   ... 2.500e-11
   Tcut                                     ... 2.500e-12
   Tpresel                                  ... 2.500e-12 
Coulomb Range Separation                    ... NOT USED
Exchange Range Separation                   ... NOT USED
Multipole approximations                    ... NOT USED
Finite Nucleus Model                        ... NOT USED
CABS basis                                  ... NOT available
Auxiliary Coulomb fitting basis             ... AVAILABLE
   # of basis functions in Aux-J            ...    466
   # of shells in Aux-J                     ...    162
   Maximum angular momentum in Aux-J        ...      4
Auxiliary J/K fitting basis                 ... NOT available
Auxiliary Correlation fitting basis         ... NOT available
Auxiliary 'external' fitting basis          ... NOT available

Checking pre-screening integrals            ... done (  0.0 sec) Dimension = 123
   => SHARK Basis and OBASIS are compatible. Storing Pre-screening
Shell pair information
Shell pair cut-off parameter TPreSel        ...   2.5e-12
Total number of shell pairs                 ...      7626
Shell pairs after pre-screening             ...      7181
Total number of primitive shell pairs       ...     22992
Primitive shell pairs kept                  ...     16587
          la=0 lb=0:   2135 shell pairs
          la=1 lb=0:   2176 shell pairs
          la=1 lb=1:    567 shell pairs
          la=2 lb=0:    927 shell pairs
          la=2 lb=1:    460 shell pairs
          la=2 lb=2:    104 shell pairs
          la=3 lb=0:    455 shell pairs
          la=3 lb=1:    231 shell pairs
          la=3 lb=2:     98 shell pairs
          la=3 lb=3:     28 shell pairs

Checking whether 4 symmetric matrices of dimension 289 fit in memory
:Max Core in MB      =  16384.00
 MB in use           =     10.46
 MB left             =  16373.54
 MB needed           =      1.28
 Data fit in memory  = YES
Calculating RI/J V-Matrix + Cholesky decomp.... done (  0.0 sec)
Calculating Nuclear repulsion               ... done (  0.0 sec) ENN=    381.350014859483 Eh

Diagonalization of the overlap matrix:
Smallest eigenvalue                        ... 4.801e-05
Time for diagonalization                   ...    0.004 sec
Threshold for overlap eigenvalues          ... 1.000e-07
Number of eigenvalues below threshold      ... 0
Time for construction of square roots      ...    0.001 sec
Total time needed                          ...    0.005 sec

-------------------
DFT GRID GENERATION
-------------------

General Integration Accuracy     IntAcc      ... 4.388
Radial Grid Type                 RadialGrid  ... OptM3 with GC (2021)
Angular Grid (max. ang.)         AngularGrid ... 4 (Lebedev-302)
Angular grid pruning method      GridPruning ... 4 (adaptive)
Weight generation scheme         WeightScheme... mBecke (2022)
Basis function cutoff            BFCut       ... 1.0000e-11
Integration weight cutoff        WCut        ... 1.0000e-14
Partially contracted basis set               ... off
Rotationally invariant grid construction     ... off
Angular grids for H and He will be reduced by one unit

Total number of grid points                  ...    78216
Total number of batches                      ...     1230
Average number of points per batch           ...       63
Average number of grid points per atom       ...     4345
Grids setup in   0.3 sec
Initializing property integral containers    ... done (  0.0 sec)

SHARK setup successfully completed in   0.4 seconds

Maximum memory used throughout the entire STARTUP-calculation: 45.2 MB
-------------------------------------------------------------------------------
                                 ORCA GUESS
                   Start orbitals & Density for SCF / CASSCF
-------------------------------------------------------------------------------

------------
SCF SETTINGS
------------
Hamiltonian:
 Density Functional     Method          .... DFT(GTOs)
 Exchange Functional    Exchange        .... PBE
   PBE kappa parameter   XKappa         ....  1.245000
   PBE mue parameter    XMuePBE         ....  0.219520
 Correlation Functional Correlation     .... PBE
   PBE beta parameter  CBetaPBE         ....  0.066725
 LDA part of GGA corr.  LDAOpt          .... PW91-LDA
 Gradients option       PostSCFGGA      .... off
   NL short-range parameter             ....  3.700000
 RI-approximation to the Coulomb term is turned on
   Number of AuxJ basis functions       .... 466


General Settings:
 Integral files         IntName         .... job
 Hartree-Fock type      HFTyp           .... RHF
 Total Charge           Charge          ....    0
 Multiplicity           Mult            ....    1
 Number of Electrons    NEL             ....   64
 Basis Dimension        Dim             ....  289
 Nuclear Repulsion      ENuc            ....    381.3500148595 Eh

Convergence Acceleration:
 AO-DIIS                CNVDIIS         .... on
   Start iteration      DIISMaxIt       ....    12
   Startup error        DIISStart       ....  0.200000
   # of expansion vecs  DIISMaxEq       ....     5
   Bias factor          DIISBfac        ....   1.050
   Max. coefficient     DIISMaxC        ....  10.000
 MO-DIIS                CNVKDIIS        .... off
 Trust-Rad. Augm. Hess. CNVTRAH         .... auto
   Auto Start mean grad. ratio tolernc. ....  1.125000
   Auto Start start iteration           ....    50
   Auto Start num. interpolation iter.  ....    10
   Max. Number of Micro iterations      ....    24
   Max. Number of Macro iterations      .... Maxiter - #DIIS iter
   Number of Davidson start vectors     ....     2
   Converg. threshold    (grad. norm)   ....   1.000e-05
   Grad. Scal. Fac. for Micro threshold ....   0.100
   Minimum threshold for Micro iter.    ....   1.000e-02
   NR start threshold (gradient norm)   ....   1.000e-04
   Initial trust radius                 ....   0.400
   Minimum AH scaling param. (alpha)    ....   1.000
   Maximum AH scaling param. (alpha)    .... 1000.000
   Quad. conv. algorithm                .... NR
   White noise on init. David. guess    .... on
   Maximum white noise                  ....   0.010
   Pseudo random numbers                .... off
   Inactive MOs                         .... canonical
   Orbital update algorithm             .... Taylor
   Preconditioner                       .... Diag
   Full preconditioner red. dimension   ....   250
 SOSCF                 CNVSOSCF           .... on
   Start iteration     SOSCFMaxIt         ....   150
   Startup grad/error  SOSCFStart         ....  0.003300
   Hessian update      SOSCFHessUp        .... L-BFGS
   Autom. constraints  SOSCFAutoConstrain .... off
 Level Shifting         CNVShift        .... on
   Level shift para.    LevelShift      ....    0.2500
   Turn off err/grad.   ShiftErr        ....    0.0010
 Zerner damping         CNVZerner       .... off
 Static damping         CNVDamp         .... on
   Fraction old density DampFac         ....    0.7000
   Max. Damping (<1)    DampMax         ....    0.9800
   Min. Damping (>=0)   DampMin         ....    0.0000
   Turn off err/grad.   DampErr         ....    0.1000

SCF Procedure:
 Maximum # iterations   MaxIter         ....   125
 SCF integral mode      SCFMode         .... Direct
   Integral package                     .... SHARK and LIBINT hybrid scheme
 Reset frequency        DirectResetFreq ....    20
 Integral Threshold     Thresh          ....  2.500e-11 Eh
 Primitive CutOff       TCut            ....  2.500e-12 Eh

Convergence Tolerance:
 Convergence Check Mode ConvCheckMode   .... Total+1el-Energy
 Convergence forced     ConvForced      .... 0
 Energy Change          TolE            ....  1.000e-08 Eh
 1-El. energy change                    ....  1.000e-05 Eh
 Orbital Gradient       TolG            ....  1.000e-05
 Orbital Rotation angle TolX            ....  1.000e-05
 DIIS Error             TolErr          ....  5.000e-07

------------------------------
INITIAL GUESS: MODEL POTENTIAL
------------------------------
Loading Hartree-Fock densities                     ... done
Calculating cut-offs                               ... done
Initializing the effective Hamiltonian             ... done
Setting up the integral package (SHARK)            ... done
Starting the Coulomb interaction                   ... done (   0.1 sec)
Making the grid                                    ... done (   0.1 sec)
Mapping shells                                     ... done
Starting the XC term evaluation                    ... done (   0.2 sec)
  promolecular density results
     # of electrons  =     63.995731653
     EX              =    -61.686740135
     EC              =     -2.220390907
     EX+EC           =    -63.907131042
Transforming the Hamiltonian                       ... done (   0.0 sec)
Diagonalizing the Hamiltonian                      ... done (   0.0 sec)
Back transforming the eigenvectors                 ... done (   0.0 sec)
Now organizing SCF variables                       ... done
                      ------------------
                      INITIAL GUESS DONE (   0.4 sec)
                      ------------------
             **** ENERGY FILE WAS UPDATED (job.en.tmp) ****
Finished Guess after   0.5 sec
Maximum memory used throughout the entire GUESS-calculation: 24.9 MB

-------------------------------------------------------------------------------------------
                                      ORCA LEAN-SCF
                              memory conserving SCF solver
-------------------------------------------------------------------------------------------

----------------------------------------D-I-I-S--------------------------------------------
Iteration    Energy (Eh)           Delta-E    RMSDP     MaxDP     DIISErr   Damp  Time(sec)
-------------------------------------------------------------------------------------------
               ***  Starting incremental Fock matrix formation  ***
    1    -695.2338846862643322     0.00e+00  1.35e-03  2.73e-02  1.47e-01  0.700   1.1
    2    -695.3174793527390420    -8.36e-02  1.11e-03  2.66e-02  6.63e-02  0.700   0.9
                               ***Turning on AO-DIIS***
    3    -695.3444780822652547    -2.70e-02  5.95e-04  2.12e-02  1.74e-02  0.700   0.9
    4    -695.3610660868979494    -1.66e-02  1.07e-03  4.13e-02  1.02e-02  0.000   0.8
    5    -695.3998788213551734    -3.88e-02  2.55e-04  8.14e-03  7.81e-03  0.000   0.9
                              *** Initializing SOSCF ***
---------------------------------------S-O-S-C-F--------------------------------------
Iteration    Energy (Eh)           Delta-E    RMSDP     MaxDP     MaxGrad    Time(sec)
--------------------------------------------------------------------------------------
    6    -695.4004492198674825    -5.70e-04  1.20e-04  3.87e-03  2.02e-03     0.8
               *** Restarting incremental Fock matrix formation ***
    7    -695.4004922652887899    -4.30e-05  9.92e-05  2.89e-03  3.17e-04     1.0
    8    -695.4004891925154652     3.07e-06  2.17e-05  6.99e-04  5.24e-04     0.8
    9    -695.4004964525080368    -7.26e-06  2.59e-05  1.28e-03  6.94e-05     0.8
   10    -695.4004965491134271    -9.66e-08  1.02e-05  5.57e-04  5.17e-05     0.7
   11    -695.4004967917545628    -2.43e-07  1.79e-06  5.62e-05  9.73e-06     0.8
   12    -695.4004967841973439     7.56e-09  7.36e-07  1.78e-05  7.86e-06     0.7
                 **** Energy Check signals convergence ****

               *****************************************************
               *                     SUCCESS                       *
               *           SCF CONVERGED AFTER  12 CYCLES          *
               *****************************************************

             **** ENERGY FILE WAS UPDATED (job.en.tmp) ****

----------------
TOTAL SCF ENERGY
----------------

Total Energy       :       -695.40049680199934 Eh          -18922.80954 eV

Components:
Nuclear Repulsion  :        381.35001485948317 Eh           10377.06146 eV
Electronic Energy  :      -1076.75051166148251 Eh          -29299.87100 eV
One Electron Energy:      -1708.46314361518557 Eh          -46489.64563 eV
Two Electron Energy:        631.71263195370307 Eh           17189.77463 eV

Virial components:
Potential Energy   :      -1389.14397342246798 Eh          -37800.52926 eV
Kinetic Energy     :        693.74347662046864 Eh           18877.71972 eV
Virial Ratio       :          2.00238852001838

DFT components:
N(Alpha)           :       32.000006158179 electrons
N(Beta)            :       32.000006158179 electrons
N(Total)           :       64.000012316358 electrons
E(X)               :      -62.672083046648 Eh       
E(C)               :       -2.212643621603 Eh       
E(XC)              :      -64.884726668251 Eh       

---------------
SCF CONVERGENCE
---------------

  Last Energy change         ...   -7.5572e-09  Tolerance :   1.0000e-08
  Last MAX-Density change    ...    1.7786e-05  Tolerance :   1.0000e-07
  Last RMS-Density change    ...    7.3619e-07  Tolerance :   5.0000e-09
  Last DIIS Error            ...    2.0248e-03  Tolerance :   5.0000e-07
  Last Orbital Gradient      ...    7.8603e-06  Tolerance :   1.0000e-05
  Last Orbital Rotation      ...    7.6249e-06  Tolerance :   1.0000e-05


----------------
ORBITAL ENERGIES
----------------

  NO   OCC          E(Eh)            E(eV) 
   0   2.0000    -100.653675     -2738.9257 
   1   2.0000      -9.950102      -270.7560 
   2   2.0000      -9.895278      -269.2642 
   3   2.0000      -9.895210      -269.2624 
   4   2.0000      -9.893189      -269.2073 
   5   2.0000      -9.893022      -269.2028 
   6   2.0000      -9.892298      -269.1831 
   7   2.0000      -9.155266      -249.1275 
   8   2.0000      -6.972886      -189.7419 
   9   2.0000      -6.962783      -189.4670 
  10   2.0000      -6.962691      -189.4644 
  11   2.0000      -0.794061       -21.6075 
  12   2.0000      -0.740280       -20.1441 
  13   2.0000      -0.681681       -18.5495 
  14   2.0000      -0.654896       -17.8206 
  15   2.0000      -0.561130       -15.2691 
  16   2.0000      -0.554315       -15.0837 
  17   2.0000      -0.477675       -12.9982 
  18   2.0000      -0.447301       -12.1717 
  19   2.0000      -0.433250       -11.7893 
  20   2.0000      -0.403362       -10.9760 
  21   2.0000      -0.375122       -10.2076 
  22   2.0000      -0.355177        -9.6649 
  23   2.0000      -0.347664        -9.4604 
  24   2.0000      -0.337644        -9.1878 
  25   2.0000      -0.333517        -9.0755 
  26   2.0000      -0.315932        -8.5969 
  27   2.0000      -0.283049        -7.7021 
  28   2.0000      -0.276502        -7.5240 
  29   2.0000      -0.270996        -7.3742 
  30   2.0000      -0.244895        -6.6639 
  31   2.0000      -0.243283        -6.6201 
  32   0.0000      -0.009859        -0.2683 
  33   0.0000       0.019772         0.5380 
  34   0.0000       0.033251         0.9048 
  35   0.0000       0.042143         1.1468 
  36   0.0000       0.055486         1.5098 
  37   0.0000       0.062769         1.7080 
  38   0.0000       0.075976         2.0674 
  39   0.0000       0.081618         2.2209 
  40   0.0000       0.091211         2.4820 
  41   0.0000       0.091672         2.4945 
  42   0.0000       0.107560         2.9269 
*Only the first 10 virtual orbitals were printed.

                    ********************************
                    * MULLIKEN POPULATION ANALYSIS *
                    ********************************

-----------------------
MULLIKEN ATOMIC CHARGES
-----------------------
   0 C :   -0.195347
   1 C :   -0.136925
   2 H :    0.085894
   3 H :    0.062676
   4 C :   -0.127212
   5 C :    0.102398
   6 H :    0.082164
   7 H :    0.077329
   8 H :    0.082540
   9 H :    0.068523
  10 H :    0.092902
  11 C :   -0.222771
  12 H :    0.063935
  13 Cl:   -0.177442
  14 C :   -0.102020
  15 H :    0.086582
  16 H :    0.083764
  17 H :    0.073010
Sum of atomic charges:   -0.0000000

--------------------------------
MULLIKEN REDUCED ORBITAL CHARGES
--------------------------------
  0 C s       :     3.180740  s :     3.180740
      pz      :     1.000773  p :     2.919448
      px      :     0.976503
      py      :     0.942172
      dz2     :     0.011637  d :     0.089788
      dxz     :     0.015656
      dyz     :     0.017761
      dx2y2   :     0.018010
      dxy     :     0.026725
      f0      :     0.000340  f :     0.005371
      f+1     :     0.000820
      f-1     :     0.000715
      f+2     :     0.000976
      f-2     :     0.000253
      f+3     :     0.001444
      f-3     :     0.000824

  1 C s       :     3.105053  s :     3.105053
      pz      :     1.007684  p :     2.935608
      px      :     0.993091
      py      :     0.934833
      dz2     :     0.021775  d :     0.090855
      dxz     :     0.005833
      dyz     :     0.019039
      dx2y2   :     0.021493
      dxy     :     0.022715
      f0      :     0.000881  f :     0.005409
      f+1     :     0.000622
      f-1     :     0.000500
      f+2     :     0.000838
      f-2     :     0.000371
      f+3     :     0.001239
      f-3     :     0.000958

  2 H s       :     0.892870  s :     0.892870
      pz      :     0.008046  p :     0.021236
      px      :     0.008013
      py      :     0.005178

  3 H s       :     0.916060  s :     0.916060
      pz      :     0.011710  p :     0.021264
      px      :     0.004762
      py      :     0.004792

  4 C s       :     3.106194  s :     3.106194
      pz      :     0.994734  p :     2.920692
      px      :     0.918239
      py      :     1.007719
      dz2     :     0.024301  d :     0.094882
      dxz     :     0.018980
      dyz     :     0.003779
      dx2y2   :     0.031380
      dxy     :     0.016442
      f0      :     0.000785  f :     0.005444
      f+1     :     0.000954
      f-1     :     0.000315
      f+2     :     0.000655
      f-2     :     0.000500
      f+3     :     0.001211
      f-3     :     0.001025

  5 C s       :     3.068048  s :     3.068048
      pz      :     0.972360  p :     2.665961
      px      :     0.953111
      py      :     0.740489
      dz2     :     0.031747  d :     0.155366
      dxz     :     0.021791
      dyz     :     0.023143
      dx2y2   :     0.042536
      dxy     :     0.036149
      f0      :     0.000957  f :     0.008228
      f+1     :     0.001039
      f-1     :     0.000716
      f+2     :     0.001396
      f-2     :     0.000527
      f+3     :     0.002108
      f-3     :     0.001486

  6 H s       :     0.896592  s :     0.896592
      pz      :     0.007650  p :     0.021244
      px      :     0.008424
      py      :     0.005170

  7 H s       :     0.901423  s :     0.901423
      pz      :     0.009274  p :     0.021248
      px      :     0.005456
      py      :     0.006518

  8 H s       :     0.896066  s :     0.896066
      pz      :     0.005150  p :     0.021394
      px      :     0.010455
      py      :     0.005790

  9 H s       :     0.910169  s :     0.910169
      pz      :     0.011846  p :     0.021308
      px      :     0.004616
      py      :     0.004846

 10 H s       :     0.885690  s :     0.885690
      pz      :     0.004885  p :     0.021408
      px      :     0.010779
      py      :     0.005745

 11 C s       :     3.189201  s :     3.189201
      pz      :     1.025740  p :     2.939591
      px      :     0.957445
      py      :     0.956407
      dz2     :     0.010480  d :     0.088603
      dxz     :     0.017240
      dyz     :     0.017992
      dx2y2   :     0.017585
      dxy     :     0.025306
      f0      :     0.000335  f :     0.005375
      f+1     :     0.000854
      f-1     :     0.000725
      f+2     :     0.000974
      f-2     :     0.000279
      f+3     :     0.001443
      f-3     :     0.000765

 12 H s       :     0.914852  s :     0.914852
      pz      :     0.011801  p :     0.021213
      px      :     0.004654
      py      :     0.004758

 13 Cls       :     5.917130  s :     5.917130
      pz      :     3.932686  p :    11.198058
      px      :     3.945529
      py      :     3.319843
      dz2     :     0.008157  d :     0.057134
      dxz     :     0.000854
      dyz     :     0.013998
      dx2y2   :     0.020325
      dxy     :     0.013799
      f0      :     0.000413  f :     0.005120
      f+1     :     0.000074
      f-1     :     0.001054
      f+2     :     0.000789
      f-2     :     0.000099
      f+3     :     0.001099
      f-3     :     0.001592

 14 C s       :     3.096920  s :     3.096920
      pz      :     0.995221  p :     2.907823
      px      :     0.989366
      py      :     0.923236
      dz2     :     0.021423  d :     0.091877
      dxz     :     0.006511
      dyz     :     0.017932
      dx2y2   :     0.023812
      dxy     :     0.022199
      f0      :     0.000890  f :     0.005401
      f+1     :     0.000550
      f-1     :     0.000482
      f+2     :     0.000837
      f-2     :     0.000369
      f+3     :     0.001321
      f-3     :     0.000952

 15 H s       :     0.892001  s :     0.892001
      pz      :     0.009153  p :     0.021417
      px      :     0.005491
      py      :     0.006774

 16 H s       :     0.894884  s :     0.894884
      pz      :     0.004804  p :     0.021352
      px      :     0.004828
      py      :     0.011720

 17 H s       :     0.905074  s :     0.905074
      pz      :     0.012814  p :     0.021916
      px      :     0.004906
      py      :     0.004196



                     *******************************
                     * LOEWDIN POPULATION ANALYSIS *
                     *******************************

----------------------
LOEWDIN ATOMIC CHARGES
----------------------
   0 C :   -0.259103
   1 C :   -0.268176
   2 H :    0.136831
   3 H :    0.135906
   4 C :   -0.266945
   5 C :   -0.484148
   6 H :    0.134413
   7 H :    0.135753
   8 H :    0.135000
   9 H :    0.138706
  10 H :    0.137042
  11 C :   -0.268319
  12 H :    0.134094
  13 Cl:    0.303971
  14 C :   -0.258424
  15 H :    0.138206
  16 H :    0.134613
  17 H :    0.140582

-------------------------------
LOEWDIN REDUCED ORBITAL CHARGES
-------------------------------
  0 C s       :     2.779138  s :     2.779138
      pz      :     1.029478  p :     3.046482
      px      :     1.011034
      py      :     1.005969
      dz2     :     0.047853  d :     0.394445
      dxz     :     0.081398
      dyz     :     0.080261
      dx2y2   :     0.091387
      dxy     :     0.093546
      f0      :     0.003182  f :     0.039037
      f+1     :     0.005066
      f-1     :     0.005848
      f+2     :     0.005463
      f-2     :     0.004068
      f+3     :     0.009468
      f-3     :     0.005943

  1 C s       :     2.783575  s :     2.783575
      pz      :     1.024551  p :     3.052396
      px      :     1.004079
      py      :     1.023766
      dz2     :     0.100464  d :     0.393562
      dxz     :     0.034698
      dyz     :     0.071013
      dx2y2   :     0.095996
      dxy     :     0.091391
      f0      :     0.005033  f :     0.038643
      f+1     :     0.003828
      f-1     :     0.004030
      f+2     :     0.007015
      f-2     :     0.005391
      f+3     :     0.007141
      f-3     :     0.006205

  2 H s       :     0.803878  s :     0.803878
      pz      :     0.024195  p :     0.059292
      px      :     0.021044
      py      :     0.014053

  3 H s       :     0.805278  s :     0.805278
      pz      :     0.032309  p :     0.058816
      px      :     0.013334
      py      :     0.013172

  4 C s       :     2.776093  s :     2.776093
      pz      :     1.022991  p :     3.048645
      px      :     1.017389
      py      :     1.008265
      dz2     :     0.112652  d :     0.402867
      dxz     :     0.074310
      dyz     :     0.021835
      dx2y2   :     0.120546
      dxy     :     0.073525
      f0      :     0.004557  f :     0.039340
      f+1     :     0.005675
      f-1     :     0.002767
      f+2     :     0.006170
      f-2     :     0.006461
      f+3     :     0.006973
      f-3     :     0.006738

  5 C s       :     2.808703  s :     2.808703
      pz      :     1.042639  p :     3.017661
      px      :     1.055771
      py      :     0.919252
      dz2     :     0.134904  d :     0.600615
      dxz     :     0.079414
      dyz     :     0.087751
      dx2y2   :     0.168239
      dxy     :     0.130306
      f0      :     0.006073  f :     0.057169
      f+1     :     0.006082
      f-1     :     0.005244
      f+2     :     0.010094
      f-2     :     0.006680
      f+3     :     0.012736
      f-3     :     0.010261

  6 H s       :     0.806573  s :     0.806573
      pz      :     0.023057  p :     0.059014
      px      :     0.022008
      py      :     0.013949

  7 H s       :     0.805209  s :     0.805209
      pz      :     0.027353  p :     0.059038
      px      :     0.014564
      py      :     0.017121

  8 H s       :     0.805885  s :     0.805885
      pz      :     0.015357  p :     0.059116
      px      :     0.028247
      py      :     0.015513

  9 H s       :     0.802118  s :     0.802118
      pz      :     0.032691  p :     0.059177
      px      :     0.013213
      py      :     0.013273

 10 H s       :     0.803582  s :     0.803582
      pz      :     0.014432  p :     0.059376
      px      :     0.029686
      py      :     0.015257

 11 C s       :     2.785939  s :     2.785939
      pz      :     1.032817  p :     3.054429
      px      :     0.995696
      py      :     1.025916
      dz2     :     0.045690  d :     0.389580
      dxz     :     0.084498
      dyz     :     0.077464
      dx2y2   :     0.090159
      dxy     :     0.091770
      f0      :     0.003163  f :     0.038371
      f+1     :     0.005297
      f-1     :     0.005610
      f+2     :     0.005430
      f-2     :     0.004147
      f+3     :     0.009087
      f-3     :     0.005638

 12 H s       :     0.806967  s :     0.806967
      pz      :     0.032196  p :     0.058939
      px      :     0.013184
      py      :     0.013560

 13 Cls       :     5.579464  s :     5.579464
      pz      :     3.866149  p :    11.011817
      px      :     3.857100
      py      :     3.288568
      dz2     :     0.012864  d :     0.094050
      dxz     :     0.001099
      dyz     :     0.023773
      dx2y2   :     0.031770
      dxy     :     0.024543
      f0      :     0.000996  f :     0.010698
      f+1     :     0.000159
      f-1     :     0.001935
      f+2     :     0.001914
      f-2     :     0.000165
      f+3     :     0.002617
      f-3     :     0.002913

 14 C s       :     2.776834  s :     2.776834
      pz      :     1.025685  p :     3.044141
      px      :     1.009621
      py      :     1.008834
      dz2     :     0.101713  d :     0.398104
      dxz     :     0.035337
      dyz     :     0.067898
      dx2y2   :     0.100298
      dxy     :     0.092858
      f0      :     0.005292  f :     0.039346
      f+1     :     0.003339
      f-1     :     0.003906
      f+2     :     0.007380
      f-2     :     0.005337
      f+3     :     0.007779
      f-3     :     0.006314

 15 H s       :     0.802296  s :     0.802296
      pz      :     0.027355  p :     0.059498
      px      :     0.014615
      py      :     0.017528

 16 H s       :     0.806342  s :     0.806342
      pz      :     0.014116  p :     0.059045
      px      :     0.013155
      py      :     0.031773

 17 H s       :     0.799616  s :     0.799616
      pz      :     0.034871  p :     0.059802
      px      :     0.013756
      py      :     0.011175



                      *****************************
                      * MAYER POPULATION ANALYSIS *
                      *****************************

  NA   - Mulliken gross atomic population
  ZA   - Total nuclear charge
  QA   - Mulliken gross atomic charge
  VA   - Mayer's total valence
  BVA  - Mayer's bonded valence
  FA   - Mayer's free valence

  ATOM       NA         ZA         QA         VA         BVA        FA
  0 C      6.1953     6.0000    -0.1953     4.0631     4.0631     0.0000
  1 C      6.1369     6.0000    -0.1369     4.0089     4.0089    -0.0000
  2 H      0.9141     1.0000     0.0859     0.9761     0.9761     0.0000
  3 H      0.9373     1.0000     0.0627     0.9766     0.9766     0.0000
  4 C      6.1272     6.0000    -0.1272     4.0923     4.0923    -0.0000
  5 C      5.8976     6.0000     0.1024     4.1738     4.1738     0.0000
  6 H      0.9178     1.0000     0.0822     0.9685     0.9685    -0.0000
  7 H      0.9227     1.0000     0.0773     0.9727     0.9727     0.0000
  8 H      0.9175     1.0000     0.0825     0.9689     0.9689     0.0000
  9 H      0.9315     1.0000     0.0685     0.9940     0.9940    -0.0000
 10 H      0.9071     1.0000     0.0929     0.9822     0.9822    -0.0000
 11 C      6.2228     6.0000    -0.2228     4.0328     4.0328     0.0000
 12 H      0.9361     1.0000     0.0639     0.9757     0.9757    -0.0000
 13 Cl    17.1774    17.0000    -0.1774     1.1453     1.1453    -0.0000
 14 C      6.1020     6.0000    -0.1020     4.0398     4.0398     0.0000
 15 H      0.9134     1.0000     0.0866     0.9963     0.9963     0.0000
 16 H      0.9162     1.0000     0.0838     0.9708     0.9708    -0.0000
 17 H      0.9270     1.0000     0.0730     0.9805     0.9805    -0.0000

  Mayer bond orders larger than 0.100000
B(  0-C ,  1-C ) :   1.0260 B(  0-C ,  4-C ) :   1.0596 B(  0-C ,  6-H ) :   0.9484 
B(  0-C ,  7-H ) :   0.9501 B(  1-C ,  5-C ) :   1.0664 B(  1-C ,  9-H ) :   0.9305 
B(  1-C , 10-H ) :   0.9433 B(  2-H , 11-C ) :   0.9475 B(  3-H , 14-C ) :   0.9361 
B(  4-C , 12-H ) :   0.9350 B(  4-C , 14-C ) :   1.0769 B(  4-C , 16-H ) :   0.9413 
B(  5-C , 11-C ) :   1.0476 B(  5-C , 13-Cl) :   1.0223 B(  5-C , 17-H ) :   0.9418 
B(  8-H , 14-C ) :   0.9382 B( 11-C , 14-C ) :   1.0304 B( 11-C , 15-H ) :   0.9461 


-------
TIMINGS
-------

Total SCF time: 0 days 0 hours 0 min 10 sec 

Total time                  ....      10.916 sec
Sum of individual times     ....      10.223 sec  ( 93.7%)

SCF preparation             ....       0.025 sec  (  0.2%)
Fock matrix formation       ....      10.099 sec  ( 92.5%)
  Startup                   ....       0.002 sec  (  0.0% of F)
  Split-RI-J                ....       2.935 sec  ( 29.1% of F)
  XC integration            ....       7.820 sec  ( 77.4% of F)
    XC Preparation          ....       0.000 sec  (  0.0% of XC)
    Basis function eval.    ....       2.502 sec  ( 32.0% of XC)
    Density eval.           ....       1.463 sec  ( 18.7% of XC)
    XC-Functional eval.     ....       0.158 sec  (  2.0% of XC)
    XC-Potential eval.      ....       3.558 sec  ( 45.5% of XC)
Diagonalization             ....       0.000 sec  (  0.0%)
Density matrix formation    ....       0.008 sec  (  0.1%)
Total Energy calculation    ....       0.008 sec  (  0.1%)
Population analysis         ....       0.004 sec  (  0.0%)
Orbital Transformation      ....       0.011 sec  (  0.1%)
Orbital Orthonormalization  ....       0.000 sec  (  0.0%)
DIIS solution               ....       0.048 sec  (  0.4%)
SOSCF solution              ....       0.020 sec  (  0.2%)
Finished LeanSCF after  10.9 sec

Maximum memory used throughout the entire LEANSCF-calculation: 31.9 MB

-------------------------   --------------------
FINAL SINGLE POINT ENERGY      -695.400496801999
-------------------------   --------------------

------------------------------------------------------------------------------
                         ORCA SCF GRADIENT CALCULATION
------------------------------------------------------------------------------

Nuc. rep. gradient        (SHARK) ... done (  0.0 sec)
HCore & Overlap gradient  (SHARK) ... done (  0.2 sec)
Split-RIJ-J gradient      (SHARK) ... done (  1.1 sec)
XC gradient                       ... done (  4.1 sec)

------------------
CARTESIAN GRADIENT
------------------

   1   C   :    0.005114631   -0.007636195    0.002557996
   2   C   :    0.004989785    0.003595641   -0.004832389
   3   H   :   -0.000994664    0.002717984    0.002064056
   4   H   :    0.000053792   -0.001872224   -0.003543974
   5   C   :   -0.001752581   -0.003665862    0.002532158
   6   C   :    0.000402232   -0.010054212   -0.003238208
   7   H   :    0.002891533   -0.001530513    0.001840256
   8   H   :    0.001102547   -0.001696835   -0.002423803
   9   H   :   -0.003099492   -0.001574906   -0.000173405
  10   H   :   -0.001863616    0.003978895   -0.001705078
  11   H   :    0.000523611    0.003739995    0.000257226
  12   C   :   -0.009268246    0.004553807    0.002247811
  13   H   :   -0.001076275   -0.000648793    0.004197560
  14   Cl  :    0.001364428    0.013786109    0.000742029
  15   C   :   -0.001246339   -0.006425375   -0.003652269
  16   H   :    0.002608191    0.004573672   -0.000244010
  17   H   :   -0.000704919   -0.003653769    0.000722333
  18   H   :    0.000955381    0.001812580    0.002651711

Difference to translation invariance:
           :    0.0000000000   -0.0000000000   -0.0000000000

Difference to rotation invariance:
           :   -0.0000957416    0.0000487103   -0.0000299732

Norm of the Cartesian gradient     ...    0.0286563529
RMS gradient                       ...    0.0038996357
MAX gradient                       ...    0.0137861091

-------
TIMINGS
-------

Total SCF gradient time     ....        5.332 sec

Densities                   ....       0.000 sec  (  0.0%)
One electron gradient       ....       0.177 sec  (  3.3%)
RI-J Coulomb gradient       ....       1.085 sec  ( 20.3%)
XC gradient                 ....       4.070 sec  ( 76.3%)

Maximum memory used throughout the entire SCFGRAD-calculation: 41.3 MB
------------------------------------------------------------------------------
                         ORCA GEOMETRY RELAXATION STEP
------------------------------------------------------------------------------

Reading the OPT-File                    .... done
Getting information on internals        .... done
Copying old internal coords+grads       .... done
Making the new internal coordinates     .... (2022 redundants) done
Validating the new internal coordinates .... (2022 redundants) done
Calculating the B-matrix                .... done
Calculating the G,G- and P matrices     .... done
Transforming gradient to internals      .... done
Projecting the internal gradient        .... done
Number of atoms                         ....  18
Number of internal coordinates          ....  90
Current Energy                          ....  -695.400496802 Eh
Current gradient norm                   ....     0.028656353 Eh/bohr
Maximum allowed component of the step   ....  0.300
Current trust radius                    ....  0.300
Evaluating the initial hessian          ....  (Almloef) done
Projecting the Hessian                  .... done
Forming the augmented Hessian           .... done
Diagonalizing the augmented Hessian     .... done
Last element of RFO vector              ....  0.989994676
Lowest eigenvalues of augmented Hessian:
 -0.003575876  0.011046896  0.013751725  0.020084346  0.052191972
Length of the computed step             ....  0.142530786
The final length of the internal step   ....  0.142530786
Converting the step to Cartesian space:
 Initial RMS(Int)=    0.0150240640
Transforming coordinates:
 Iter   0:  RMS(Cart)=    0.0279609371 RMS(Int)=    0.0149944858
done
Storing new coordinates                 .... done

                                .--------------------.
          ----------------------|Geometry convergence|-------------------------
          Item                value                   Tolerance       Converged
          ---------------------------------------------------------------------
          RMS gradient        0.0035367563            0.0001000000      NO
          MAX gradient        0.0150039503            0.0003000000      NO
          RMS step            0.0150240640            0.0020000000      NO
          MAX step            0.0411116986            0.0040000000      NO
          -------------------------------------------------------------------------
          ........................................................
          Max(Bonds)      0.0218      Max(Angles)    1.18
          Max(Dihed)        2.21      Max(Improp)    0.00
          ---------------------------------------------------------------------

The optimization has not yet converged - more geometry cycles are needed


    ---------------------------------------------------------------------------
                         Redundant Internal Coordinates
                            (Angstroem and degrees)

        Definition                    Value    dE/dq     Step     New-Value
    ----------------------------------------------------------------------------
     1. B(C   1,C   0)                1.5324 -0.015004  0.0212    1.5536   
     2. B(C   4,C   0)                1.5297 -0.010323  0.0151    1.5448   
     3. B(C   5,C   1)                1.5252 -0.004792  0.0057    1.5309   
     4. B(H   6,C   0)                1.0967 -0.003611  0.0054    1.1021   
     5. B(H   7,C   0)                1.0971 -0.003135  0.0047    1.1018   
     6. B(H   9,C   1)                1.0982 -0.002522  0.0038    1.1020   
     7. B(H  10,C   1)                1.0969 -0.001860  0.0028    1.0997   
     8. B(C  11,C   5)                1.5325 -0.005951  0.0082    1.5407   
     9. B(C  11,H   2)                1.0976 -0.002750  0.0041    1.1017   
    10. B(H  12,C   4)                1.0975 -0.004184  0.0063    1.1037   
    11. B(Cl 13,C   5)                1.7859 -0.013608  0.0218    1.8077   
    12. B(C  14,H   8)                1.0960 -0.003256  0.0048    1.1009   
    13. B(C  14,C   4)                1.5228 -0.008638  0.0119    1.5347   
    14. B(C  14,C  11)                1.5325 -0.014446  0.0208    1.5532   
    15. B(C  14,H   3)                1.0977 -0.003776  0.0056    1.1033   
    16. B(H  15,C  11)                1.0977 -0.001550  0.0023    1.1000   
    17. B(H  16,C   4)                1.0960 -0.003482  0.0052    1.1011   
    18. B(H  17,C   5)                1.0962 -0.002452  0.0037    1.0999   
    19. A(C   4,C   0,H   6)          108.63 -0.000789    0.33    108.97   
    20. A(C   1,C   0,H   7)          108.63 -0.000422   -0.04    108.59   
    21. A(C   1,C   0,C   4)          113.73  0.000766   -0.35    113.38   
    22. A(C   1,C   0,H   6)          109.74 -0.000392    0.33    110.07   
    23. A(C   4,C   0,H   7)          109.74  0.000267   -0.12    109.62   
    24. A(H   6,C   0,H   7)          106.09  0.000565   -0.15    105.94   
    25. A(H   9,C   1,H  10)          106.39 -0.000560   -0.12    106.28   
    26. A(C   0,C   1,H  10)          109.12 -0.002199    0.68    109.80   
    27. A(C   5,C   1,H   9)          109.57  0.002586   -0.63    108.94   
    28. A(C   0,C   1,C   5)          111.69  0.000376   -0.34    111.35   
    29. A(C   5,C   1,H  10)          111.02  0.003412   -0.53    110.49   
    30. A(C   0,C   1,H   9)          108.89 -0.003809    0.98    109.87   
    31. A(C   0,C   4,H  12)          109.43 -0.000794    0.32    109.75   
    32. A(C  14,C   4,H  16)          110.25 -0.000562    0.12    110.37   
    33. A(C   0,C   4,C  14)          111.76  0.000725   -0.32    111.44   
    34. A(C   0,C   4,H  16)          109.57 -0.000541    0.20    109.77   
    35. A(H  12,C   4,H  16)          106.50  0.001305   -0.33    106.17   
    36. A(H  12,C   4,C  14)          109.19 -0.000111    0.00    109.19   
    37. A(C   1,C   5,C  11)          111.50 -0.001812    0.23    111.73   
    38. A(C  11,C   5,H  17)          109.44 -0.001365    0.01    109.46   
    39. A(Cl 13,C   5,H  17)          105.96  0.002731   -0.87    105.08   
    40. A(C   1,C   5,H  17)          109.26  0.000535   -0.15    109.10   
    41. A(C  11,C   5,Cl 13)          110.06  0.000094    0.31    110.37   
    42. A(C   1,C   5,Cl 13)          110.47  0.000032    0.41    110.88   
    43. A(C  14,C  11,H  15)          107.99 -0.005538    0.90    108.89   
    44. A(C   5,C  11,H  15)          111.20  0.005038   -1.18    110.02   
    45. A(H   2,C  11,H  15)          106.02  0.000927    0.05    106.07   
    46. A(H   2,C  11,C   5)          108.75  0.000104    0.00    108.75   
    47. A(C   5,C  11,C  14)          113.20  0.000767   -0.48    112.72   
    48. A(H   2,C  11,C  14)          109.43 -0.001352    0.76    110.19   
    49. A(H   8,C  14,C  11)          109.60  0.000299    0.03    109.63   
    50. A(C   4,C  14,C  11)          112.54  0.000387   -0.21    112.32   
    51. A(H   3,C  14,C  11)          109.05 -0.001205    0.43    109.48   
    52. A(C   4,C  14,H   8)          110.22 -0.000452    0.08    110.30   
    53. A(H   3,C  14,H   8)          106.39  0.000993   -0.29    106.09   
    54. A(H   3,C  14,C   4)          108.85 -0.000001   -0.04    108.81   
    55. D(H   9,C   1,C   0,H   7)    -24.38  0.000718   -1.08    -25.47   
    56. D(C   5,C   1,C   0,C   4)    -23.01  0.000350   -1.16    -24.17   
    57. D(H   9,C   1,C   0,C   4)     98.13  0.001272   -1.50     96.62   
    58. D(H   9,C   1,C   0,H   6)   -139.96  0.000493   -1.07   -141.03   
    59. D(C   5,C   1,C   0,H   7)   -145.52 -0.000204   -0.74   -146.26   
    60. D(C   5,C   1,C   0,H   6)     98.90 -0.000429   -0.72     98.18   
    61. D(H  12,C   4,C   0,C   1)     86.15 -0.000099    0.38     86.53   
    62. D(C  14,C   4,C   0,H   7)     86.98  0.000291   -0.02     86.96   
    63. D(C  14,C   4,C   0,H   6)   -157.44  0.000671   -0.08   -157.51   
    64. D(C  14,C   4,C   0,C   1)    -34.92  0.000107    0.36    -34.55   
    65. D(H  12,C   4,C   0,H   6)    -36.37  0.000465   -0.06    -36.43   
    66. D(H  12,C   4,C   0,H   7)   -151.95  0.000085   -0.00   -151.95   
    67. D(C  11,C   5,C   1,H   9)    -60.13  0.001906    0.51    -59.62   
    68. D(C  11,C   5,C   1,C   0)     60.61 -0.000896    1.10     61.71   
    69. D(C  11,C   5,C   1,H  10)   -177.36 -0.001036    1.36   -176.00   
    70. D(Cl 13,C   5,C   1,H  10)    -54.64 -0.002155    2.21    -52.43   
    71. D(Cl 13,C   5,C   1,H   9)     62.58  0.000787    1.36     63.95   
    72. D(Cl 13,C   5,C   1,C   0)   -176.68 -0.002015    1.95   -174.73   
    73. D(C  14,C  11,C   5,H  17)     84.13 -0.001393    0.28     84.41   
    74. D(C  14,C  11,C   5,Cl 13)   -159.81  0.001171   -0.60   -160.41   
    75. D(C  14,C  11,C   5,C   1)    -36.86  0.000027    0.31    -36.55   
    76. D(H   2,C  11,C   5,H  17)    -37.71 -0.000253   -0.38    -38.09   
    77. D(H   2,C  11,C   5,Cl 13)     78.34  0.002310   -1.25     77.10   
    78. D(H   2,C  11,C   5,C   1)   -158.71  0.001166   -0.34   -159.05   
    79. D(H   8,C  14,C   4,H  16)    -56.40 -0.001117    1.14    -55.26   
    80. D(H   8,C  14,C   4,H  12)     60.28  0.000074    0.81     61.09   
    81. D(H   8,C  14,C   4,C   0)   -178.52 -0.000529    1.02   -177.50   
    82. D(H   3,C  14,C   4,H  16)     59.92 -0.000175    0.81     60.73   
    83. D(H   3,C  14,C   4,H  12)    176.60  0.001017    0.48    177.08   
    84. D(H   3,C  14,C  11,H   2)   -138.96  0.001235   -1.16   -140.12   
    85. D(H   3,C  14,C   4,C   0)    -62.20  0.000413    0.69    -61.51   
    86. D(C   4,C  14,C  11,H  15)   -144.87 -0.000787   -0.33   -145.20   
    87. D(C   4,C  14,C  11,C   5)    -21.31  0.002136   -1.50    -22.81   
    88. D(C   4,C  14,C  11,H   2)    100.15  0.001816   -1.28     98.88   
    89. D(H   3,C  14,C  11,H  15)    -23.98 -0.001368   -0.22    -24.20   
    90. D(H   3,C  14,C  11,C   5)     99.58  0.001555   -1.39     98.19   
    ----------------------------------------------------------------------------

Geometry step timings:
Preparation and reading OPT file:      0.000 s ( 0.955 %)
Internal coordinates            :      0.000 s ( 1.292 %)
B/P matrices and projection     :      0.001 s (28.539 %)
Hessian update/contruction      :      0.000 s (15.955 %)
Making the step                 :      0.000 s (22.022 %)
Converting the step to Cartesian:      0.000 s ( 1.854 %)
Storing new data                :      0.000 s ( 2.640 %)
Checking convergence            :      0.000 s ( 3.146 %)
Final printing                  :      0.000 s (23.596 %)
Total time                      :      0.002 s

Time for energy+gradient        :     17.309 s
Time for complete geometry iter :     17.348 s

         *************************************************************
         *                GEOMETRY OPTIMIZATION CYCLE   2            *
         *************************************************************
---------------------------------
CARTESIAN COORDINATES (ANGSTROEM)
---------------------------------
  C     -5.076165    2.572037    0.070016
  C     -5.100240    1.044882    0.354634
  H     -1.889416    0.552885   -0.824005
  H     -2.617977    2.484614    1.375064
  C     -3.696469    3.086934   -0.396614
  C     -4.001736    0.315711   -0.423371
  H     -5.830181    2.826707   -0.692377
  H     -5.379507    3.104745    0.985477
  H     -1.580274    2.734774   -0.026042
  H     -4.956980    0.862376    1.431947
  H     -6.088468    0.634294    0.101394
  C     -2.597090    0.800974   -0.016933
  H     -3.606565    2.973458   -1.490826
  Cl    -4.136770   -1.473606   -0.204886
  C     -2.552878    2.323826    0.285479
  H     -2.250929    0.251414    0.870866
  H     -3.612929    4.165713   -0.192236
  H     -4.150403    0.484625   -1.500006

----------------------------
CARTESIAN COORDINATES (A.U.)
----------------------------
  NO LB      ZA    FRAG     MASS         X           Y           Z
   0 C     6.0000    0    12.011   -9.592562    4.860446    0.132311
   1 C     6.0000    0    12.011   -9.638056    1.974540    0.670160
   2 H     1.0000    0     1.008   -3.570479    1.044802   -1.557143
   3 H     1.0000    0     1.008   -4.947259    4.695241    2.598494
   4 C     6.0000    0    12.011   -6.985314    5.833460   -0.749491
   5 C     6.0000    0    12.011   -7.562185    0.596607   -0.800055
   6 H     1.0000    0     1.008  -11.017445    5.341703   -1.308402
   7 H     1.0000    0     1.008  -10.165794    5.867117    1.862281
   8 H     1.0000    0     1.008   -2.986285    5.167974   -0.049213
   9 H     1.0000    0     1.008   -9.367334    1.629655    2.705988
  10 H     1.0000    0     1.008  -11.505538    1.198641    0.191606
  11 C     6.0000    0    12.011   -4.907790    1.513622   -0.031998
  12 H     1.0000    0     1.008   -6.815420    5.619021   -2.817253
  13 Cl   17.0000    0    35.453   -7.817363   -2.784711   -0.387178
  14 C     6.0000    0    12.011   -4.824240    4.391394    0.539478
  15 H     1.0000    0     1.008   -4.253639    0.475103    1.645699
  16 H     1.0000    0     1.008   -6.827446    7.872057   -0.363272
  17 H     1.0000    0     1.008   -7.843124    0.915808   -2.834601

--------------------------------
INTERNAL COORDINATES (ANGSTROEM)
--------------------------------
 C      0   0   0     0.000000000000     0.00000000     0.00000000
 C      1   0   0     1.553637809011     0.00000000     0.00000000
 H      2   1   0     3.455522450939    93.61599012     0.00000000
[...]
      px      :     0.010598
      py      :     0.005811

  9 H s       :     0.909031  s :     0.909031
      pz      :     0.011834  p :     0.021179
      px      :     0.004697
      py      :     0.004649

 10 H s       :     0.881454  s :     0.881454
      pz      :     0.004674  p :     0.021413
      px      :     0.010717
      py      :     0.006022

 11 C s       :     3.190194  s :     3.190194
      pz      :     1.024128  p :     2.933078
      px      :     0.953331
      py      :     0.955619
      dz2     :     0.010250  d :     0.085410
      dxz     :     0.017570
      dyz     :     0.016180
      dx2y2   :     0.017108
      dxy     :     0.024301
      f0      :     0.000285  f :     0.005159
      f+1     :     0.000819
      f-1     :     0.000757
      f+2     :     0.000959
      f-2     :     0.000276
      f+3     :     0.001328
      f-3     :     0.000736

 12 H s       :     0.910646  s :     0.910646
      pz      :     0.011729  p :     0.021045
      px      :     0.004631
      py      :     0.004685

 13 Cls       :     5.926937  s :     5.926937
      pz      :     3.942282  p :    11.212901
      px      :     3.947550
      py      :     3.323069
      dz2     :     0.007233  d :     0.050959
      dxz     :     0.000692
      dyz     :     0.012410
      dx2y2   :     0.018717
      dxy     :     0.011907
      f0      :     0.000353  f :     0.004446
      f+1     :     0.000064
      f-1     :     0.000925
      f+2     :     0.000667
      f-2     :     0.000074
      f+3     :     0.000933
      f-3     :     0.001429

 14 C s       :     3.110559  s :     3.110559
      pz      :     0.993187  p :     2.905232
      px      :     0.989582
      py      :     0.922463
      dz2     :     0.022649  d :     0.089120
      dxz     :     0.006074
      dyz     :     0.016122
      dx2y2   :     0.023152
      dxy     :     0.021124
      f0      :     0.000809  f :     0.005205
      f+1     :     0.000579
      f-1     :     0.000543
      f+2     :     0.000772
      f-2     :     0.000382
      f+3     :     0.001150
      f-3     :     0.000970

 15 H s       :     0.887959  s :     0.887959
      pz      :     0.008560  p :     0.021469
      px      :     0.005562
      py      :     0.007346

 16 H s       :     0.892286  s :     0.892286
      pz      :     0.004791  p :     0.021211
      px      :     0.004740
      py      :     0.011679

 17 H s       :     0.898112  s :     0.898112
      pz      :     0.012677  p :     0.021806
      px      :     0.004962
      py      :     0.004167



                     *******************************
                     * LOEWDIN POPULATION ANALYSIS *
                     *******************************

----------------------
LOEWDIN ATOMIC CHARGES
----------------------
   0 C :   -0.251242
   1 C :   -0.264238
   2 H :    0.135477
   3 H :    0.135289
   4 C :   -0.262919
   5 C :   -0.448403
   6 H :    0.133164
   7 H :    0.134562
   8 H :    0.133819
   9 H :    0.138004
  10 H :    0.136192
  11 C :   -0.262435
  12 H :    0.133477
  13 Cl:    0.253680
  14 C :   -0.254338
  15 H :    0.137557
  16 H :    0.132956
  17 H :    0.139397

-------------------------------
LOEWDIN REDUCED ORBITAL CHARGES
-------------------------------
  0 C s       :     2.792391  s :     2.792391
      pz      :     1.035489  p :     3.047329
      px      :     1.010093
      py      :     1.001747
      dz2     :     0.042725  d :     0.375376
      dxz     :     0.085449
      dyz     :     0.073001
      dx2y2   :     0.087048
      dxy     :     0.087152
      f0      :     0.002707  f :     0.036147
      f+1     :     0.005009
      f-1     :     0.005668
      f+2     :     0.004708
      f-2     :     0.003732
      f+3     :     0.008817
      f-3     :     0.005504

  1 C s       :     2.791921  s :     2.791921
      pz      :     1.026833  p :     3.053562
      px      :     1.010065
      py      :     1.016664
      dz2     :     0.102449  d :     0.381886
      dxz     :     0.035887
      dyz     :     0.066533
      dx2y2   :     0.088583
      dxy     :     0.088435
      f0      :     0.004154  f :     0.036868
      f+1     :     0.004398
      f-1     :     0.004241
      f+2     :     0.006575
      f-2     :     0.005418
      f+3     :     0.005890
      f-3     :     0.006193

  2 H s       :     0.805416  s :     0.805416
      pz      :     0.025688  p :     0.059107
      px      :     0.019964
      py      :     0.013454

  3 H s       :     0.806251  s :     0.806251
      pz      :     0.032448  p :     0.058460
      px      :     0.013300
      py      :     0.012713

  4 C s       :     2.787791  s :     2.787791
      pz      :     1.027058  p :     3.051606
      px      :     1.012838
      py      :     1.011710
      dz2     :     0.106817  d :     0.386449
      dxz     :     0.071467
      dyz     :     0.022288
      dx2y2   :     0.115251
      dxy     :     0.070626
      f0      :     0.004415  f :     0.037073
      f+1     :     0.005090
      f-1     :     0.002732
      f+2     :     0.005946
      f-2     :     0.006114
      f+3     :     0.006302
      f-3     :     0.006474

  5 C s       :     2.820509  s :     2.820509
      pz      :     1.045436  p :     2.999430
      px      :     1.055290
      py      :     0.898704
      dz2     :     0.130737  d :     0.575240
      dxz     :     0.081079
      dyz     :     0.079080
      dx2y2   :     0.163221
      dxy     :     0.121124
      f0      :     0.005865  f :     0.053225
      f+1     :     0.005816
      f-1     :     0.004877
      f+2     :     0.009220
      f-2     :     0.006205
      f+3     :     0.011394
      f-3     :     0.009848

  6 H s       :     0.808045  s :     0.808045
      pz      :     0.024488  p :     0.058790
      px      :     0.021116
      py      :     0.013186

  7 H s       :     0.806599  s :     0.806599
      pz      :     0.025912  p :     0.058839
      px      :     0.015008
      py      :     0.017919

  8 H s       :     0.807386  s :     0.807386
      pz      :     0.014240  p :     0.058795
      px      :     0.028993
      py      :     0.015563

  9 H s       :     0.803074  s :     0.803074
      pz      :     0.032387  p :     0.058923
      px      :     0.013699
      py      :     0.012837

 10 H s       :     0.804399  s :     0.804399
      pz      :     0.013592  p :     0.059409
      px      :     0.029848
      py      :     0.015969

 11 C s       :     2.795708  s :     2.795708
      pz      :     1.037455  p :     3.055741
      px      :     0.998129
      py      :     1.020157
      dz2     :     0.043631  d :     0.374744
      dxz     :     0.084440
      dyz     :     0.073109
      dx2y2   :     0.087273
      dxy     :     0.086292
      f0      :     0.002863  f :     0.036241
      f+1     :     0.005151
      f-1     :     0.005507
      f+2     :     0.004844
      f-2     :     0.003877
      f+3     :     0.008506
      f-3     :     0.005494

 12 H s       :     0.808129  s :     0.808129
      pz      :     0.032211  p :     0.058394
      px      :     0.012971
      py      :     0.013211

 13 Cls       :     5.612659  s :     5.612659
      pz      :     3.883221  p :    11.042012
      px      :     3.870724
      py      :     3.288066
      dz2     :     0.011355  d :     0.082619
      dxz     :     0.000883
      dyz     :     0.020614
      dx2y2   :     0.029383
      dxy     :     0.020384
      f0      :     0.000828  f :     0.009030
      f+1     :     0.000132
      f-1     :     0.001661
      f+2     :     0.001577
      f-2     :     0.000117
      f+3     :     0.002108
      f-3     :     0.002607

 14 C s       :     2.788018  s :     2.788018
      pz      :     1.028960  p :     3.045739
      px      :     1.012292
      py      :     1.004487
      dz2     :     0.104836  d :     0.383683
      dxz     :     0.032206
      dyz     :     0.062500
      dx2y2   :     0.095462
      dxy     :     0.088678
      f0      :     0.004554  f :     0.036898
      f+1     :     0.003636
      f-1     :     0.003926
      f+2     :     0.006872
      f-2     :     0.005131
      f+3     :     0.006626
      f-3     :     0.006154

 15 H s       :     0.802835  s :     0.802835
      pz      :     0.025843  p :     0.059607
      px      :     0.014726
      py      :     0.019038

 16 H s       :     0.808306  s :     0.808306
      pz      :     0.013992  p :     0.058738
      px      :     0.012832
      py      :     0.031914

 17 H s       :     0.800909  s :     0.800909
      pz      :     0.034983  p :     0.059694
      px      :     0.013888
      py      :     0.010823



                      *****************************
                      * MAYER POPULATION ANALYSIS *
                      *****************************

  NA   - Mulliken gross atomic population
  ZA   - Total nuclear charge
  QA   - Mulliken gross atomic charge
  VA   - Mayer's total valence
  BVA  - Mayer's bonded valence
  FA   - Mayer's free valence

  ATOM       NA         ZA         QA         VA         BVA        FA
  0 C      6.1990     6.0000    -0.1990     4.0596     4.0596    -0.0000
  1 C      6.1338     6.0000    -0.1338     4.0169     4.0169    -0.0000
  2 H      0.9142     1.0000     0.0858     0.9783     0.9783     0.0000
  3 H      0.9334     1.0000     0.0666     0.9769     0.9769     0.0000
  4 C      6.1326     6.0000    -0.1326     4.0671     4.0671    -0.0000
  5 C      5.9129     6.0000     0.0871     4.1414     4.1414    -0.0000
  6 H      0.9155     1.0000     0.0845     0.9706     0.9706    -0.0000
  7 H      0.9187     1.0000     0.0813     0.9725     0.9725    -0.0000
  8 H      0.9130     1.0000     0.0870     0.9686     0.9686     0.0000
  9 H      0.9302     1.0000     0.0698     0.9919     0.9919    -0.0000
 10 H      0.9029     1.0000     0.0971     0.9845     0.9845    -0.0000
 11 C      6.2138     6.0000    -0.2138     4.0201     4.0201     0.0000
 12 H      0.9317     1.0000     0.0683     0.9769     0.9769    -0.0000
 13 Cl    17.1952    17.0000    -0.1952     1.1225     1.1225    -0.0000
 14 C      6.1101     6.0000    -0.1101     4.0498     4.0498    -0.0000
 15 H      0.9094     1.0000     0.0906     0.9973     0.9973    -0.0000
 16 H      0.9135     1.0000     0.0865     0.9696     0.9696    -0.0000
 17 H      0.9199     1.0000     0.0801     0.9815     0.9815    -0.0000

  Mayer bond orders larger than 0.100000
B(  0-C ,  1-C ) :   1.0222 B(  0-C ,  4-C ) :   1.0522 B(  0-C ,  6-H ) :   0.9527 
B(  0-C ,  7-H ) :   0.9476 B(  1-C ,  5-C ) :   1.0649 B(  1-C ,  9-H ) :   0.9299 
B(  1-C , 10-H ) :   0.9429 B(  2-H , 11-C ) :   0.9487 B(  3-H , 14-C ) :   0.9377 
B(  4-C , 12-H ) :   0.9383 B(  4-C , 14-C ) :   1.0723 B(  4-C , 16-H ) :   0.9412 
B(  5-C , 11-C ) :   1.0438 B(  5-C , 13-Cl) :   0.9978 B(  5-C , 17-H ) :   0.9480 
B(  8-H , 14-C ) :   0.9395 B( 11-C , 14-C ) :   1.0271 B( 11-C , 15-H ) :   0.9424 


-------
TIMINGS
-------

Total SCF time: 0 days 0 hours 0 min 4 sec 

Total time                  ....       4.650 sec
Sum of individual times     ....       4.027 sec  ( 86.6%)

SCF preparation             ....       0.028 sec  (  0.6%)
Fock matrix formation       ....       3.947 sec  ( 84.9%)
  Startup                   ....       0.001 sec  (  0.0% of F)
  Split-RI-J                ....       1.289 sec  ( 32.7% of F)
  XC integration            ....       3.253 sec  ( 82.4% of F)
    Basis function eval.    ....       1.086 sec  ( 33.4% of XC)
    Density eval.           ....       0.672 sec  ( 20.7% of XC)
    XC-Functional eval.     ....       0.072 sec  (  2.2% of XC)
    XC-Potential eval.      ....       1.369 sec  ( 42.1% of XC)
Diagonalization             ....       0.000 sec  (  0.0%)
Density matrix formation    ....       0.003 sec  (  0.1%)
Total Energy calculation    ....       0.004 sec  (  0.1%)
Population analysis         ....       0.018 sec  (  0.4%)
Orbital Transformation      ....       0.005 sec  (  0.1%)
Orbital Orthonormalization  ....       0.000 sec  (  0.0%)
DIIS solution               ....       0.006 sec  (  0.1%)
SOSCF solution              ....       0.015 sec  (  0.3%)
Finished LeanSCF after   4.7 sec

Maximum memory used throughout the entire LEANSCF-calculation: 32.2 MB

-------------------------   --------------------
FINAL SINGLE POINT ENERGY      -695.403345351662
-------------------------   --------------------

                                *** OPTIMIZATION RUN DONE ***


------------------------------------------------------------------------------
                              ORCA PROPERTY CALCULATIONS
------------------------------------------------------------------------------

GBWName                                 ... job.gbw
Number of atoms                         ...     18
Number of basis functions               ...    289
Max core memory                         ...  16384 MB

Electric properties:
Dipole moment                           ... YES
Quadrupole moment                       ...  NO
Static polarizability (Dipole/Dipole)   ...  NO
Static polarizability (Dipole/Quad.)    ...  NO
Static polarizability (Quad./Quad.)     ...  NO
Static polarizability (Velocity)        ...  NO
Static hyperpolarizability              ...  NO

Atomic electric properties:
Dipole moment                           ...  NO
Quadrupole moment                       ...  NO
Static polarizability                   ...  NO

Choice of electric origin               ... Center of mass
Position of electric origin             ...    -7.422921     1.448257    -0.131992

General magnetic properties:
Magnetizability                         ...  NO

EPR properties:
g-Tensor (aka g-matrix)                 ...  NO
Zero-Field splitting spin-orbit         ...  NO
Zero-field splitting spin-spin          ...  NO
Hyperfine couplings                     ...  NO (   0 nuclei)
Quadrupole couplings                    ...  NO (   0 nuclei)
Contact density                         ...  NO (   0 nuclei)

NMR properties:
Chemical shifts                         ...  NO (   0 nuclei)
Spin-rotation constants                 ...  NO (   0 nuclei)
Spin-spin couplings                     ...  NO (   0 nuclei,    0 pairs)

Choice of magnetic origin               ... GIAO
Position of magnetic origin             ...     0.000000     0.000000     0.000000

Properties with geometric perturbations:
SCF Hessian                             ...  NO
IR spectrum                             ...  NO
VCD spectrum                            ...  NO
X-ray spectroscopy properties:
SCF XES/XAS/RIXS spectra                ...  NO

SCF SOC stabilization energy            ...  NO
Diagonal Born-Oppenheimer correction    ...  NO

-------------
DIPOLE MOMENT
-------------

Method             : SCF
Type of density    : Electron Density
Multiplicity       :   1
Irrep              :   0
Energy             :  -695.4033453516615282 Eh
Basis              : AO
                                X                 Y                 Z
Electronic contribution:     -1.392092883     -13.910940010      -0.935310725
Nuclear contribution   :      1.472211846      14.859359962       0.905994452
                        -----------------------------------------
Total Dipole Moment    :      0.080118962       0.948419952      -0.029316273
                        -----------------------------------------
Magnitude (a.u.)       :      0.952249388
Magnitude (Debye)      :      2.420425590



--------------------
Rotational spectrum 
--------------------
 
Rotational constants in cm-1:             0.139104             0.045473             0.037101 
Rotational constants in MHz :          4170.223317          1363.248609          1112.246558 

Dipole components along the rotational axes: 
x,y,z [a.u.] :     0.949678    -0.001661    -0.069917 
x,y,z [Debye]:     2.413889    -0.004222    -0.177715 

 

Dipole moment calculation done in   0.0 sec 

Maximum memory used throughout the entire PROP-calculation: 22.9 MB

--------------------------------
SUGGESTED CITATIONS FOR THIS RUN
--------------------------------

Below you find a list of papers that are relevant to this ORCA run
We neither can nor want to force you to cite these papers, but we appreciate if you do
You receive ORCA, which is the product of decades of hard work by many enthusiastic individuals, for free
The only thing we kindly ask in return is that you cite our papers,
We deeply appreciate it, if you show your appreciation for ORCA by not just citing the generic ORCA reference.

Please note that relegating all ORCA citations to the supporting information does *not* help us.
SI sections are not indexed - citations you put there will not count into any citation statistics
But we need these citations in order to attract the funding resources that allow us to do what we are doing

Therefore, if you are a happy ORCA user, please consider citing a few of the papers listed below in the main body of your paper

In addition to the list printed below, the program has created the file job.bibtex that contains the list in bibtex format
You can import this file easily into all common literature databanks and citation aid programs


List of essential papers. We consider these as the minimum necessary citations

  1. Neese, F.
     Software update: the ORCA program system, version 6.0
     WIRES Comput. Molec. Sci. 2025 15(1), e70019
     doi.org/10.1002/wcms.7019

List of papers to cite with high priority. The work reported in these papers was absolutely
necessary for this run to complete.
Our perspective: the developers of density functionals and basis sets usually get cited in chemistry papers
Good! But without the algorithms to do something with them, the functionals or basis sets would not do anything.
Hence, in our opinion, the algorithm design and method developments papers are equally worthy of getting cited

  1. Neese, F.
     An improvement of the resolution of the identity approximation for the formation of the Coulomb matrix
     J. Comp. Chem. 2003 24(14), 1740-1747
     doi.org/10.1002/jcc.10318
  2. Neese, F.
     The SHARK Integral Generation and Digestion System
     J. Comp. Chem. 2022 44(3), 381
     doi.org/10.1002/jcc.26942

List of suggested additional citations. These are papers that are important in the 'surrounding' of 
of this run, or papers that preceded the highly important papers. If you like your results we are grateful for a citation.

  1. Neese, F.
     The ORCA program system
     WIRES Comput. Molec. Sci. 2012 2(1), 73-78
     doi.org/10.1002/wcms.81
  2. Neese, F.
     Software update: the ORCA program system, version 4.0
     WIRES Comput. Molec. Sci. 2018 8(1), 1-6
     doi.org/10.1002/wcms.1327
  3. Neese, F.; Wennmohs, F.; Becker, U.; Riplinger, C.
     The ORCA quantum chemistry program package
     J. Chem. Phys. 2020 152(22), 224108
     doi.org/10.1063/5.0004608
  4. Neese, F.
     Software update: The ORCA program system—Version 5.0
     WIRES Comput. Molec. Sci. 2022 12(1), e1606
     doi.org/10.1002/wcms.1606

List of optional additional citations

  1. Neese, F.
     Approximate second-order SCF convergence for spin unrestricted wavefunctions
     Chem. Phys. Lett. 2000 325(1-3), 93-98
     doi.org/10.1016/s0009-2614(00)00662-x

Timings for individual modules:

Sum of individual times          ...      119.615 sec (=   1.994 min)
Startup calculation              ...        4.389 sec (=   0.073 min)   3.7 %
SCF iterations                   ...       67.424 sec (=   1.124 min)  56.4 %
Property calculations            ...        0.064 sec (=   0.001 min)   0.1 %
SCF Gradient evaluation          ...       47.718 sec (=   0.795 min)  39.9 %
Geometry relaxation              ...        0.020 sec (=   0.000 min)   0.0 %
                             ****ORCA TERMINATED NORMALLY****
TOTAL RUN TIME: 0 days 0 hours 2 minutes 0 seconds 83 msec
