
                                 *****************
                                 * O   R   C   A *
                                 *****************

                                            #,                                       
                                            ###                                      
                                            ####                                     
                                            #####                                    
                                            ######                                   
                                           ########,                                 
                                     ,,################,,,,,                         
                               ,,#################################,,                 
                          ,,##########################################,,             
                       ,#########################################, ''#####,          
                    ,#############################################,,   '####,        
                  ,##################################################,,,,####,       
                ,###########''''           ''''###############################       
              ,#####''   ,,,,##########,,,,          '''####'''          '####       
            ,##' ,,,,###########################,,,                        '##       
           ' ,,###''''                  '''############,,,                           
         ,,##''                                '''############,,,,        ,,,,,,###''
      ,#''                                            '''#######################'''  
     '                                                          ''''####''''         
             ,#######,   #######,   ,#######,      ##                                
            ,#'     '#,  ##    ##  ,#'     '#,    #''#        ,####,    ,#,          
            ##       ##  ##   ,#'  ##            #'  '#       #'       ,# #          
            ##       ##  #######   ##           ,######,      #####,      #          
            '#,     ,#'  ##    ##  '#,     ,#' ,#      #,     #,   #      #          
             '#######'   ##     ##  '#######'  #'      '#     '####' #    #          



                #########################################################
                #                        -***-                          #
                #          Department of theory and spectroscopy        #
                #                                                       #
                #                      Frank Neese                      #
                #                                                       #
                #     Directorship, Architecture, Infrastructure        #
                #                    SHARK, DRIVERS                     #
                #        Core code/Algorithms in most modules           #
                #                                                       #
                #        Max Planck Institute fuer Kohlenforschung      #
                #                Kaiser Wilhelm Platz 1                 #
                #                 D-45470 Muelheim/Ruhr                 #
                #                      Germany                          #
                #                                                       #
                #                  All rights reserved                  #
                #                        -***-                          #
                #########################################################


                         Program Version 6.1.0  -  RELEASE   -
                                (GIT: $679e74b7b5$)
                          ($2025-06-10 18:02:51 +0200$)


 With contributions from (in alphabetic order):
[Max-Planck-Institut fuer Kohlenforschung]                               
  Daniel Aravena         : Magnetic Suceptibility                        
  Michael Atanasov       : Ab Initio Ligand Field Theory (pilot matlab implementation)
  Alexander A. Auer      : GIAO ZORA, VPT2 properties, NMR spectrum      
  Ute Becker             : All parallelization in ORCA, NUMFREQ, NUMCALC 
  Giovanni Bistoni       : ED, misc. LED, open-shell LED, HFLD           
  Dmytro Bykov           : pre 5.0 version of the SCF Hessian            
  Marcos Casanova-Páez   : Triplet and SCS-CIS(D). UHF-(DLPNO)-IP/EA/STEOM-CCSD. UHF-CVS-IP/STEOM-CCSD   
  Vijay G. Chilkuri      : MRCI spin determinant printing, contributions to CSF-ICE 
  Pauline Colinet        : FMM embedding                                 
  Dipayan Datta          : RHF DLPNO-CCSD density                        
  Achintya Kumar Dutta   : EOM-CC, STEOM-CC                              
  Nicolas Foglia         : Exact transition moments, OPA infrastructure, MCD improvements    
  Dmitry Ganyushin       : Spin-Orbit,Spin-Spin,Magnetic field MRCI      
  Miquel Garcia-Rates    : C-PCM and meta-GGA Hessian, CCSD/C-PCM, Gaussian charge scheme 
  Tiago L. C. Gouveia    : GS-ROHF, GS-ROCIS                             
  Yang Guo               : DLPNO-NEVPT2, F12-NEVPT2, CIM, IAO-localization        
  Andreas Hansen         : Spin unrestricted coupled pair/coupled cluster methods 
  Ingolf Harden          : AUTO-CI MPn and infrastructure                
  Benjamin Helmich-Paris : MC-RPA, TRAH-(SCF,CASSCF), AVAS, COSX integrals, SCF dyn. polar., MC-PDFT, srDFT 
  Lee Huntington         : MR-EOM, pCC                                   
  Robert Izsak           : Overlap fitted RIJCOSX, COSX-SCS-MP3, EOM     
  Riya Kayal             : Wick's Theorem for AUTO-CI, AUTO-CI UHF-CCSDT 
  Emily Kempfer          : AUTO-CI RHF CISDT and CCSDT, approximate NEVPT4
  Christian Kollmar      : KDIIS, OOCD, Brueckner-CCSD(T), CCSD density, CASPT2, CASPT2-K, improved NEVPT2 
  Axel Koslowski         : Symmetry handling                             
  Simone Kossmann        : meta-GGA functionals, TD-DFT gradient, OOMP2, (MP2 Hessian; deprecated post 5.0) 
  Lucas Lang             : DCDCAS, Hyperfine gauge corrections, ICE-SOC+SSC
  Marvin Lechner         : AUTO-CI (C++ implementation), FIC-MRCC        
  Spencer Leger          : CASSCF response                               
  Dagmar Lenk            : GEPOL surface, SMD, ORCA-2-JSON               
  Dimitrios Liakos       : Extrapolation schemes; Compound Job, Property file
  Dimitrios Manganas     : Further ROCIS development; embedding schemes. LFT, Crystal Embedding 
  Dimitrios Pantazis     : SARC Basis sets                               
  Anastasios Papadopoulos: AUTO-CI, single reference methods and gradients 
  Taras Petrenko         : pre 6.0 DFT Hessian and TD-DFT gradient,  ECA, NRVS 
  Petra Pikulova         : Analytic Raman intensities                    
  Peter Pinski           : DLPNO-MP2, DLPNO-MP2 Gradient                 
  Shashank Vittal Rao    : ES-AILFT, MagRelax                            
  Christoph Reimann      : Effective Core Potentials                     
  Marius Retegan         : Local ZFS, SOC                                
  Christoph Riplinger    : Optimizer, TS searches, QM/MM, DLPNO-CCSD(T), (RO)-DLPNO pert. Triples 
  Michael Roemelt        : Original ROCIS implementation, recursive CI coupling coefficients
  Masaaki Saitow         : Open-shell DLPNO-CCSD energy and density      
  Barbara Sandhoefer     : DKH picture change effects                    
  Yorick L. A. Schmerwitz: GMF and freeze-and-release deltaSCF, NEB S-IDPP initial path                    
  Kantharuban Sivalingam : CASSCF convergence/infrastructure, NEVPT2, NEVPT3, NEVPT4(SD), FIC-MRCI and CEPA variants
  Bernardo de Souza      : ESD, SOC TD-DFT                               
  Georgi L. Stoychev     : AutoAux, RI-MP2 NMR, DLPNO-MP2 response, X2C  
  Van Anh Tran           : RI-MP2 g-tensors                              
  Willem Van den Heuvel  : Paramagnetic NMR                              
  Zikuan Wang            : NOTCH, Electric field optimization            
  Frank Wennmohs         : Technical directorship and infrastructure     
  Hang Xu                : AUTO-CI-Response properties                   
                                                                         
[FACCTs GmbH]                                                            
  Markus Bursch, Nicolas Foglia, Miquel Garcia-Rates, Ingolf Harden, Hagen Neugebauer, Anastasios Papadopoulos, 
  Christoph Riplinger, Bernardo de Souza, Georgi L. Stoychev                                                    
                                                                 
  APM, various basis sets, CI-OPT, improved COSX, DLPNO-Multilevel,           
  DOCKER, DRACO, updates on ESD, Fragmentator, GOAT, IRC, LR-CPCM, L-BFGS, MBIS, meta-GGA TD-DFT gradient, ML-optimized integration grids, 
  MM, NACMEs, nearIR, NEB, NEB-TS, NL-DFT gradient (VV10), 2- and 3-layer-ONIOM, interface openCOSMO-RS, QMMM,   
  Crystal-QMMM, RESP, rigid body optimization, SF, symmetry and pop. for TD-DFT, various functionals, SOLVATOR                                   
                                                                         
[Other institutions]                                                     
  V. Asgeirsson          : NEB                                           
  Christoph Bannwarth    : sTDA-DFT, sTD-DFT, PBEh-3c, B97-3c, D3        
  Giovanni Bistoni       : ETS/NOCV, ADLD/ADEX, COVALED                  
  Martin Brehm           : Molecular dynamics                            
  Ronald Cardenas        : ETS/NOCV                                      
  Martina Colucci        : COVALED                                       
  Sebastian Ehlert       : rSCAN, r2SCAN, r2SCAN-3c, D4, dhf basis sets  
  Marvin Friede          : D4 for Fr, Ra, Ac-Lr                          
  Lars Goerigk           : TD-DFT with DH, B97 family of functionals     
  Stefan Grimme          : VdW corrections, initial TS optimization, DFT functionals, gCP, sTDA/sTD-DF 
  Waldemar Hujo          : DFT-NL                                        
  H. Jonsson             : NEB                                           
  Holger Kruse           : gCP                                           
  Marcel Mueller         : wB97X-3c, vDZP basis set                      
  Hagen Neugebauer       : wr2SCAN, Native XTB                           
  Gianluca Regni         : ADLD/ADEX                                     
  Tobias Risthaus        : pre 6.0 range-separated hybrid DFT and stability analysis
  Lukas Wittmann         : regularized MP2, r2SCAN double-hybrids, wr2SCAN        
                                                                         
We gratefully acknowledge several colleagues who have allowed us to      
interface, adapt or use parts of their codes:                            
  Ed Valeev, F. Pavosevic, A. Kumar             : LibInt (2-el integral package), F12 methods 
  Garnet Chan, S. Sharma, J. Yang, R. Olivares  : DMRG                   
  Ulf Ekstrom                                   : XCFun DFT Library      
  Mihaly Kallay                                 : mrcc  (arbitrary order and MRCC methods)
  Frank Weinhold                                : gennbo (NPA and NBO analysis)           
  Simon Mueller                                 : openCOSMO-RS                            
  Christopher J. Cramer and Donald G. Truhlar   : smd solvation model                     
  S Lehtola, MJT Oliveira, MAL Marques          : LibXC Library                           
  Liviu Ungur et al                             : ANISO software                          


 Your calculation uses the libint2 library for the computation of 2-el integrals
 For citations please refer to: http://libint.valeyev.net

 Your ORCA version has been built with support for libXC version: 7.0.0
 For citations please refer to: https://libxc.gitlab.io

 This ORCA versions uses:
   CBLAS   interface :  Fast vector & matrix operations
   LAPACKE interface :  Fast linear algebra routines
   SCALAPACK package :  Parallel linear algebra routines
   Shared memory     :  Shared parallel matrices


  ***********************************
  * Starting time: Wed Jul  9 17:38:27 2025
  * Host name:     MacBook-Air-3.local
  * Process ID:    74662
  * Working dir.:  /Users/blenl/Desktop/Folders/Projects/DFT2/ewithdrawing/cyano/geometry_optimization
  ***********************************

NOTE: MaxCore=16384 MB was set to SCF,MP2,MDCI,CIPSI,MRCI,RASCI and CIS
      => If you want to overwrite this, your respective input block should be placed after the MaxCore statement
Warning: RI is on but no J-basis has been assigned. Assigning Def2/J (nothing to worry about!)
================================================================================

----- Orbital basis set information -----
Your calculation utilizes the basis: def2-TZVP
   F. Weigend and R. Ahlrichs, Phys. Chem. Chem. Phys. 7, 3297 (2005).

----- AuxJ basis set information -----
Your calculation utilizes the auxiliary basis: def2/J
   H-Rn: F. Weigend, Phys. Chem. Chem. Phys. 8, 1057 (2006).
   Fr-Lr: K. Eichkorn, F. Weigend, O. Treutler, R. Ahlrichs; Theor. Chem. Acc. 97, 119 (1997).

================================================================================
                                        WARNINGS
                       Please study these warnings very carefully!
================================================================================


WARNING: Geometry Optimization
  ===> : Switching off AutoStart
         For restart on a previous wavefunction, please use MOREAD

================================================================================
                                       INPUT FILE
================================================================================
NAME = job.inp
|  1> # avogadro generated ORCA file
|  2> # C7H5N | Geometry Optimization | revPBE/def2-TZVP
|  3> # 
|  4> ! Opt revPBE def2-TZVP 
|  5> 
|  6> %maxcore 16384
|  7> 
|  8> %pal
|  9>    nprocs 1
| 10> end
| 11> 
| 12> * xyz 0 1
| 13>    C     -3.760848    2.328721   -0.000052
| 14>    C     -3.760030    0.932465   -0.000070
| 15>    C     -2.548515    0.232400   -0.000094
| 16>    H     -0.403555    2.879954   -0.000091
| 17>    C     -2.553328    3.027116   -0.000061
| 18>    C     -2.544999   -1.201216   -0.000113
| 19>    H     -4.707699    0.397393   -0.000064
| 20>    N     -2.540882   -2.361985   -0.000129
| 21>    C     -1.343488    2.333020   -0.000085
| 22>    H     -2.555194    4.114867   -0.000049
| 23>    H     -4.702538    2.872610   -0.000033
| 24>    C     -1.339451    0.936852   -0.000100
| 25>    H     -0.390000    0.404908   -0.000118
| 26> *
| 27> 
| 28> 
| 29> 
| 30>                          ****END OF INPUT****
================================================================================

                       *****************************
                       * Geometry Optimization Run *
                       *****************************

Geometry optimization settings:
Update method            Update   .... BFGS
Choice of coordinates    CoordSys .... (2022) Redundant Internals
Initial Hessian          InHess   .... Almloef's Model
Max. no of cycles        MaxIter  .... 50

Convergence Tolerances:
Energy Change            TolE     ....  5.0000e-06 Eh
Max. Gradient            TolMAXG  ....  3.0000e-04 Eh/bohr
RMS Gradient             TolRMSG  ....  1.0000e-04 Eh/bohr
Max. Displacement        TolMAXD  ....  4.0000e-03 bohr
RMS Displacement         TolRMSD  ....  2.0000e-03 bohr
Strict Convergence                .... False

------------------------------------------------------------------------------
                        ORCA OPTIMIZATION COORDINATE SETUP
------------------------------------------------------------------------------

The optimization will be done in redundant internal coordinates (2022)
Making redundant internal coordinates   ...  (2022 redundants) done
Evaluating the initial hessian          ...  (Almloef) done
Evaluating the coordinates              ...  done
Calculating the B-matrix                .... done
Calculating the G-matrix                .... done
The number of degrees of freedom        ....   57

    -----------------------------------------------------------------
                    Redundant Internal Coordinates


    -----------------------------------------------------------------
         Definition                    Initial Value    Approx d2E/dq
    -----------------------------------------------------------------
      1. B(C   1,C   0)                  1.3963         0.610600   
      2. B(C   2,C   1)                  1.3992         0.603954   
      3. B(C   4,C   0)                  1.3949         0.613558   
      4. B(C   5,C   2)                  1.4336         0.532286   
      5. B(H   6,C   1)                  1.0883         0.362367   
      6. B(N   7,C   5)                  1.1608         1.298934   
      7. B(C   8,H   3)                  1.0875         0.363450   
      8. B(C   8,C   4)                  1.3948         0.613864   
      9. B(H   9,C   4)                  1.0878         0.363085   
     10. B(H  10,C   0)                  1.0875         0.363460   
     11. B(C  11,C   8)                  1.3962         0.610785   
     12. B(C  11,C   2)                  1.3993         0.603773   
     13. B(H  12,C  11)                  1.0883         0.362341   
     14. A(C   1,C   0,H  10)          120.0429         0.352551   
     15. A(C   4,C   0,H  10)          119.9468         0.352840   
     16. A(C   1,C   0,C   4)          120.0103         0.432063   
     17. A(C   2,C   1,H   6)          120.5289         0.351720   
     18. A(C   0,C   1,C   2)          120.0547         0.430840   
     19. A(C   0,C   1,H   6)          119.4163         0.352372   
     20. A(C   5,C   2,C  11)          120.0864         0.420361   
     21. A(C   1,C   2,C   5)          120.1617         0.420383   
     22. A(C   1,C   2,C  11)          119.7520         0.429971   
     23. A(C   8,C   4,H   9)          119.9416         0.352808   
     24. A(C   0,C   4,H   9)          119.9456         0.352778   
     25. A(C   0,C   4,C   8)          120.1129         0.432477   
     26. L(C   2,C   5,N   7,C  11, 2) 180.0001         0.479857   
     27. L(C   2,C   5,N   7,C  11, 1) 179.9373         0.479857   
     28. A(H   3,C   8,C   4)          119.9622         0.352868   
     29. A(C   4,C   8,C  11)          120.0089         0.432125   
     30. A(H   3,C   8,C  11)          120.0289         0.352568   
     31. A(C   8,C  11,H  12)          119.4260         0.352386   
     32. A(C   2,C  11,H  12)          120.5127         0.351698   
     33. A(C   2,C  11,C   8)          120.0612         0.430840   
     34. D(H   6,C   1,C   0,C   4)   -179.9999         0.025752   
     35. D(H   6,C   1,C   0,H  10)     -0.0000         0.025752   
     36. D(C   2,C   1,C   0,H  10)   -180.0000         0.025752   
     37. D(C   2,C   1,C   0,C   4)      0.0001         0.025752   
     38. D(C  11,C   2,C   1,C   0)     -0.0000         0.025164   
     39. D(C   5,C   2,C   1,C   0)   -180.0000         0.025164   
     40. D(C   5,C   2,C   1,H   6)      0.0001         0.025164   
     41. D(C  11,C   2,C   1,H   6)   -179.9999         0.025164   
     42. D(H   9,C   4,C   0,H  10)      0.0000         0.026017   
     43. D(H   9,C   4,C   0,C   1)    179.9999         0.026017   
     44. D(C   8,C   4,C   0,H  10)    180.0000         0.026017   
     45. D(C   8,C   4,C   0,C   1)     -0.0001         0.026017   
     46. D(C  11,C   8,C   4,C   0)     -0.0000         0.026045   
     47. D(H   3,C   8,C   4,H   9)      0.0000         0.026045   
     48. D(H   3,C   8,C   4,C   0)   -179.9999         0.026045   
     49. D(C  11,C   8,C   4,H   9)    180.0000         0.026045   
     50. D(H  12,C  11,C   8,C   4)   -180.0000         0.025769   
     51. D(C   2,C  11,C   8,C   4)      0.0001         0.025769   
     52. D(C   2,C  11,C   8,H   3)   -179.9999         0.025769   
     53. D(H  12,C  11,C   2,C   5)     -0.0001         0.025148   
     54. D(H  12,C  11,C   2,C   1)    180.0000         0.025148   
     55. D(H  12,C  11,C   8,H   3)     -0.0000         0.025769   
     56. D(C   8,C  11,C   2,C   5)    179.9998         0.025148   
     57. D(C   8,C  11,C   2,C   1)     -0.0001         0.025148   
    -----------------------------------------------------------------

Number of atoms                         .... 13
Number of degrees of freedom            .... 57


         *************************************************************
         *                GEOMETRY OPTIMIZATION CYCLE   1            *
         *************************************************************
---------------------------------
CARTESIAN COORDINATES (ANGSTROEM)
---------------------------------
  C     -3.760848    2.328721   -0.000052
  C     -3.760030    0.932465   -0.000070
  C     -2.548515    0.232400   -0.000094
  H     -0.403555    2.879954   -0.000091
  C     -2.553328    3.027116   -0.000061
  C     -2.544999   -1.201216   -0.000113
  H     -4.707699    0.397393   -0.000064
  N     -2.540882   -2.361985   -0.000129
  C     -1.343488    2.333020   -0.000085
  H     -2.555194    4.114867   -0.000049
  H     -4.702538    2.872610   -0.000033
  C     -1.339451    0.936852   -0.000100
  H     -0.390000    0.404908   -0.000118

----------------------------
CARTESIAN COORDINATES (A.U.)
----------------------------
  NO LB      ZA    FRAG     MASS         X           Y           Z
   0 C     6.0000    0    12.011   -7.106973    4.400645   -0.000098
   1 C     6.0000    0    12.011   -7.105427    1.762103   -0.000132
   2 C     6.0000    0    12.011   -4.815995    0.439172   -0.000178
   3 H     1.0000    0     1.008   -0.762608    5.442324   -0.000172
   4 C     6.0000    0    12.011   -4.825091    5.720420   -0.000115
   5 C     6.0000    0    12.011   -4.809351   -2.269969   -0.000214
   6 H     1.0000    0     1.008   -8.896262    0.750964   -0.000121
   7 N     7.0000    0    14.007   -4.801571   -4.463505   -0.000244
   8 C     6.0000    0    12.011   -2.538824    4.408769   -0.000161
   9 H     1.0000    0     1.008   -4.828617    7.775972   -0.000093
  10 H     1.0000    0     1.008   -8.886509    5.428446   -0.000062
  11 C     6.0000    0    12.011   -2.531196    1.770394   -0.000189
  12 H     1.0000    0     1.008   -0.736993    0.765165   -0.000223

--------------------------------
INTERNAL COORDINATES (ANGSTROEM)
--------------------------------
 C      0   0   0     0.000000000000     0.00000000     0.00000000
 C      1   0   0     1.396256239730     0.00000000     0.00000000
 C      2   1   0     1.399235362627   120.05471952     0.00000000
 H      1   2   3     3.402245451119    99.29061720     0.00000000
 C      1   2   3     1.394940904306   120.01029241     0.00000000
 C      3   2   1     1.433620311684   120.16167254   180.00002244
 H      2   1   3     1.088291587205   119.41633486   179.99992891
 N      6   3   2     1.160776301148   179.93730482   179.97290579
 C      4   1   2     1.087479123883    20.87034846     0.00000000
 H      5   1   2     1.087752600595   119.94557041   179.99987592
 H      1   2   3     1.087471977010   120.04287621   180.00002121
 C      9   4   1     1.396173836533   120.02886306   180.00012072
 H     12   9   4     1.088311362093   119.42604556     0.00000000

---------------------------
INTERNAL COORDINATES (A.U.)
---------------------------
 C      0   0   0     0.000000000000     0.00000000     0.00000000
 C      1   0   0     2.638541905868     0.00000000     0.00000000
 C      2   1   0     2.644171632263   120.05471952     0.00000000
 H      1   2   3     6.429312142994    99.29061720     0.00000000
 C      1   2   3     2.636056282143   120.01029241     0.00000000
 C      3   2   1     2.709149769110   120.16167254   180.00002244
 H      2   1   3     2.056573053668   119.41633486   179.99992891
 N      6   3   2     2.193549311915   179.93730482   179.97290579
 C      4   1   2     2.055037720495    20.87034846     0.00000000
 H      5   1   2     2.055554516585   119.94557041   179.99987592
 H      1   2   3     2.055024214863   120.04287621   180.00002121
 C      9   4   1     2.638386186393   120.02886306   180.00012072
 H     12   9   4     2.056610422791   119.42604556     0.00000000

---------------------
BASIS SET INFORMATION
---------------------
There are 3 groups of distinct atoms

 Group   1 Type C   : 11s6p2d1f contracted to 5s3p2d1f pattern {62111/411/11/1}
 Group   2 Type H   : 5s1p contracted to 3s1p pattern {311/1}
 Group   3 Type N   : 11s6p2d1f contracted to 5s3p2d1f pattern {62111/411/11/1}

Atom   0C    basis set group =>   1
Atom   1C    basis set group =>   1
Atom   2C    basis set group =>   1
Atom   3H    basis set group =>   2
Atom   4C    basis set group =>   1
Atom   5C    basis set group =>   1
Atom   6H    basis set group =>   2
Atom   7N    basis set group =>   3
Atom   8C    basis set group =>   1
Atom   9H    basis set group =>   2
Atom  10H    basis set group =>   2
Atom  11C    basis set group =>   1
Atom  12H    basis set group =>   2
---------------------------------
AUXILIARY/J BASIS SET INFORMATION
---------------------------------
There are 3 groups of distinct atoms

 Group   1 Type C   : 12s5p4d2f1g contracted to 6s4p3d1f1g pattern {711111/2111/211/2/1}
 Group   2 Type H   : 5s2p1d contracted to 3s1p1d pattern {311/2/1}
 Group   3 Type N   : 12s5p4d2f1g contracted to 6s4p3d1f1g pattern {711111/2111/211/2/1}

Atom   0C    basis set group =>   1
Atom   1C    basis set group =>   1
Atom   2C    basis set group =>   1
Atom   3H    basis set group =>   2
Atom   4C    basis set group =>   1
Atom   5C    basis set group =>   1
Atom   6H    basis set group =>   2
Atom   7N    basis set group =>   3
Atom   8C    basis set group =>   1
Atom   9H    basis set group =>   2
Atom  10H    basis set group =>   2
Atom  11C    basis set group =>   1
Atom  12H    basis set group =>   2
------------------------------------------------------------------------------
                             ORCA STARTUP CALCULATIONS
                           -- RI-GTO INTEGRALS CHOSEN --
------------------------------------------------------------------------------
------------------------------------------------------------------------------
                   ___                                                        
                  /   \      - P O W E R E D   B Y -                         
                 /     \                                                     
                 |  |  |   _    _      __       _____    __    __             
                 |  |  |  | |  | |    /  \     |  _  \  |  |  /  |          
                  \  \/   | |  | |   /    \    | | | |  |  | /  /          
                 / \  \   | |__| |  /  /\  \   | |_| |  |  |/  /          
                |  |  |   |  __  | /  /__\  \  |    /   |      \           
                |  |  |   | |  | | |   __   |  |    \   |  |\   \          
                \     /   | |  | | |  |  |  |  | |\  \  |  | \   \       
                 \___/    |_|  |_| |__|  |__|  |_| \__\ |__|  \__/        
                                                                              
                      - O R C A' S   B I G   F R I E N D -                    
                                      &                                       
                       - I N T E G R A L  F E E D E R -                       
                                                                              
 v1 FN, 2020, v2 2021, v3 2022-2024                                           
------------------------------------------------------------------------------


----------------------
SHARK INTEGRAL PACKAGE
----------------------

Number of atoms                             ...     13
Number of basis functions                   ...    278
Number of shells                            ...    108
Maximum angular momentum                    ...      3
Integral batch strategy                     ... SHARK/LIBINT Hybrid
RI-J (if used) integral strategy            ... SPLIT-RIJ (Revised 2003 algorithm where possible)
Printlevel                                  ...      1
Contraction scheme used                     ... SEGMENTED contraction
Prescreening option                         ... SCHWARTZ
   Thresh                                   ... 2.500e-11
   Tcut                                     ... 2.500e-12
   Tpresel                                  ... 2.500e-12 
Coulomb Range Separation                    ... NOT USED
Exchange Range Separation                   ... NOT USED
Multipole approximations                    ... NOT USED
Finite Nucleus Model                        ... NOT USED
CABS basis                                  ... NOT available
Auxiliary Coulomb fitting basis             ... AVAILABLE
   # of basis functions in Aux-J            ...    447
   # of shells in Aux-J                     ...    145
   Maximum angular momentum in Aux-J        ...      4
Auxiliary J/K fitting basis                 ... NOT available
Auxiliary Correlation fitting basis         ... NOT available
Auxiliary 'external' fitting basis          ... NOT available

Checking pre-screening integrals            ... done (  0.0 sec) Dimension = 108
   => SHARK Basis and OBASIS are compatible. Storing Pre-screening
Shell pair information
Shell pair cut-off parameter TPreSel        ...   2.5e-12
Total number of shell pairs                 ...      5886
Shell pairs after pre-screening             ...      5424
Total number of primitive shell pairs       ...     18336
Primitive shell pairs kept                  ...     12824
          la=0 lb=0:   1347 shell pairs
          la=1 lb=0:   1484 shell pairs
          la=1 lb=1:    421 shell pairs
          la=2 lb=0:    814 shell pairs
          la=2 lb=1:    449 shell pairs
          la=2 lb=2:    131 shell pairs
          la=3 lb=0:    401 shell pairs
          la=3 lb=1:    222 shell pairs
          la=3 lb=2:    122 shell pairs
          la=3 lb=3:     33 shell pairs

Checking whether 4 symmetric matrices of dimension 278 fit in memory
:Max Core in MB      =  16384.00
 MB in use           =      8.87
 MB left             =  16375.13
 MB needed           =      1.18
 Data fit in memory  = YES
Calculating RI/J V-Matrix + Cholesky decomp.... done (  0.0 sec)
Calculating Nuclear repulsion               ... done (  0.0 sec) ENN=    299.345415085754 Eh

Diagonalization of the overlap matrix:
Smallest eigenvalue                        ... 9.151e-06
Time for diagonalization                   ...    0.004 sec
Threshold for overlap eigenvalues          ... 1.000e-07
Number of eigenvalues below threshold      ... 0
Time for construction of square roots      ...    0.001 sec
Total time needed                          ...    0.005 sec

-------------------
DFT GRID GENERATION
-------------------

General Integration Accuracy     IntAcc      ... 4.388
Radial Grid Type                 RadialGrid  ... OptM3 with GC (2021)
Angular Grid (max. ang.)         AngularGrid ... 4 (Lebedev-302)
Angular grid pruning method      GridPruning ... 4 (adaptive)
Weight generation scheme         WeightScheme... mBecke (2022)
Basis function cutoff            BFCut       ... 1.0000e-11
Integration weight cutoff        WCut        ... 1.0000e-14
Partially contracted basis set               ... off
Rotationally invariant grid construction     ... off
Angular grids for H and He will be reduced by one unit

Total number of grid points                  ...    64333
Total number of batches                      ...     1013
Average number of points per batch           ...       63
Average number of grid points per atom       ...     4949
Grids setup in   0.3 sec
Initializing property integral containers    ... done (  0.0 sec)

SHARK setup successfully completed in   0.3 seconds

Maximum memory used throughout the entire STARTUP-calculation: 38.1 MB
-------------------------------------------------------------------------------
                                 ORCA GUESS
                   Start orbitals & Density for SCF / CASSCF
-------------------------------------------------------------------------------

------------
SCF SETTINGS
------------
Hamiltonian:
 Density Functional     Method          .... DFT(GTOs)
 Exchange Functional    Exchange        .... PBE
   PBE kappa parameter   XKappa         ....  1.245000
   PBE mue parameter    XMuePBE         ....  0.219520
 Correlation Functional Correlation     .... PBE
   PBE beta parameter  CBetaPBE         ....  0.066725
 LDA part of GGA corr.  LDAOpt          .... PW91-LDA
 Gradients option       PostSCFGGA      .... off
   NL short-range parameter             ....  3.700000
 RI-approximation to the Coulomb term is turned on
   Number of AuxJ basis functions       .... 447


General Settings:
 Integral files         IntName         .... job
 Hartree-Fock type      HFTyp           .... RHF
 Total Charge           Charge          ....    0
 Multiplicity           Mult            ....    1
 Number of Electrons    NEL             ....   54
 Basis Dimension        Dim             ....  278
 Nuclear Repulsion      ENuc            ....    299.3454150858 Eh

Convergence Acceleration:
 AO-DIIS                CNVDIIS         .... on
   Start iteration      DIISMaxIt       ....    12
   Startup error        DIISStart       ....  0.200000
   # of expansion vecs  DIISMaxEq       ....     5
   Bias factor          DIISBfac        ....   1.050
   Max. coefficient     DIISMaxC        ....  10.000
 MO-DIIS                CNVKDIIS        .... off
 Trust-Rad. Augm. Hess. CNVTRAH         .... auto
   Auto Start mean grad. ratio tolernc. ....  1.125000
   Auto Start start iteration           ....    50
   Auto Start num. interpolation iter.  ....    10
   Max. Number of Micro iterations      ....    24
   Max. Number of Macro iterations      .... Maxiter - #DIIS iter
   Number of Davidson start vectors     ....     2
   Converg. threshold    (grad. norm)   ....   1.000e-05
   Grad. Scal. Fac. for Micro threshold ....   0.100
   Minimum threshold for Micro iter.    ....   1.000e-02
   NR start threshold (gradient norm)   ....   1.000e-04
   Initial trust radius                 ....   0.400
   Minimum AH scaling param. (alpha)    ....   1.000
   Maximum AH scaling param. (alpha)    .... 1000.000
   Quad. conv. algorithm                .... NR
   White noise on init. David. guess    .... on
   Maximum white noise                  ....   0.010
   Pseudo random numbers                .... off
   Inactive MOs                         .... canonical
   Orbital update algorithm             .... Taylor
   Preconditioner                       .... Diag
   Full preconditioner red. dimension   ....   250
 SOSCF                 CNVSOSCF           .... on
   Start iteration     SOSCFMaxIt         ....   150
   Startup grad/error  SOSCFStart         ....  0.003300
   Hessian update      SOSCFHessUp        .... L-BFGS
   Autom. constraints  SOSCFAutoConstrain .... off
 Level Shifting         CNVShift        .... on
   Level shift para.    LevelShift      ....    0.2500
   Turn off err/grad.   ShiftErr        ....    0.0010
 Zerner damping         CNVZerner       .... off
 Static damping         CNVDamp         .... on
   Fraction old density DampFac         ....    0.7000
   Max. Damping (<1)    DampMax         ....    0.9800
   Min. Damping (>=0)   DampMin         ....    0.0000
   Turn off err/grad.   DampErr         ....    0.1000

SCF Procedure:
 Maximum # iterations   MaxIter         ....   125
 SCF integral mode      SCFMode         .... Direct
   Integral package                     .... SHARK and LIBINT hybrid scheme
 Reset frequency        DirectResetFreq ....    20
 Integral Threshold     Thresh          ....  2.500e-11 Eh
 Primitive CutOff       TCut            ....  2.500e-12 Eh

Convergence Tolerance:
 Convergence Check Mode ConvCheckMode   .... Total+1el-Energy
 Convergence forced     ConvForced      .... 0
 Energy Change          TolE            ....  1.000e-08 Eh
 1-El. energy change                    ....  1.000e-05 Eh
 Orbital Gradient       TolG            ....  1.000e-05
 Orbital Rotation angle TolX            ....  1.000e-05
 DIIS Error             TolErr          ....  5.000e-07

------------------------------
INITIAL GUESS: MODEL POTENTIAL
------------------------------
Loading Hartree-Fock densities                     ... done
Calculating cut-offs                               ... done
Initializing the effective Hamiltonian             ... done
Setting up the integral package (SHARK)            ... done
Starting the Coulomb interaction                   ... done (   0.1 sec)
Making the grid                                    ... done (   0.1 sec)
Mapping shells                                     ... done
Starting the XC term evaluation                    ... done (   0.2 sec)
  promolecular density results
     # of electrons  =     53.998891822
     EX              =    -44.031706821
     EC              =     -1.767811570
     EX+EC           =    -45.799518391
Transforming the Hamiltonian                       ... done (   0.0 sec)
Diagonalizing the Hamiltonian                      ... done (   0.0 sec)
Back transforming the eigenvectors                 ... done (   0.0 sec)
Now organizing SCF variables                       ... done
                      ------------------
                      INITIAL GUESS DONE (   0.3 sec)
                      ------------------
             **** ENERGY FILE WAS UPDATED (job.en.tmp) ****
Finished Guess after   0.4 sec
Maximum memory used throughout the entire GUESS-calculation: 23.4 MB

-------------------------------------------------------------------------------------------
                                      ORCA LEAN-SCF
                              memory conserving SCF solver
-------------------------------------------------------------------------------------------

----------------------------------------D-I-I-S--------------------------------------------
Iteration    Energy (Eh)           Delta-E    RMSDP     MaxDP     DIISErr   Damp  Time(sec)
-------------------------------------------------------------------------------------------
               ***  Starting incremental Fock matrix formation  ***
    1    -324.3536413614209550     0.00e+00  2.59e-03  1.20e-01  2.64e-01  0.700   0.8
    2    -324.4382486513096637    -8.46e-02  1.94e-03  9.69e-02  6.97e-02  0.700   0.7
                               ***Turning on AO-DIIS***
    3    -324.4635197256727679    -2.53e-02  6.21e-04  2.26e-02  4.55e-02  0.700   0.7
    4    -324.4817463556055372    -1.82e-02  1.01e-03  4.82e-02  2.75e-02  0.000   0.7
    5    -324.5219347024885792    -4.02e-02  5.05e-04  2.61e-02  8.87e-03  0.000   0.7
                              *** Initializing SOSCF ***
---------------------------------------S-O-S-C-F--------------------------------------
Iteration    Energy (Eh)           Delta-E    RMSDP     MaxDP     MaxGrad    Time(sec)
--------------------------------------------------------------------------------------
    6    -324.5223936240633975    -4.59e-04  1.38e-04  6.30e-03  2.16e-03     0.7
               *** Restarting incremental Fock matrix formation ***
    7    -324.5224158162822050    -2.22e-05  1.18e-04  5.64e-03  4.06e-04     0.8
    8    -324.5224040898710882     1.17e-05  3.88e-05  1.91e-03  1.45e-03     0.6
    9    -324.5224181938236825    -1.41e-05  2.68e-05  8.25e-04  2.51e-04     0.6
   10    -324.5224152347474273     2.96e-06  1.34e-05  3.30e-04  4.14e-04     0.6
   11    -324.5224188153100613    -3.58e-06  1.01e-05  3.76e-04  7.24e-05     0.6
   12    -324.5224185472308136     2.68e-07  5.70e-06  2.17e-04  1.06e-04     0.6
   13    -324.5224189240386750    -3.77e-07  1.66e-06  5.72e-05  7.58e-06     0.6
   14    -324.5224189227254783     1.31e-09  8.18e-07  2.85e-05  1.25e-05     0.6
                 **** Energy Check signals convergence ****

               *****************************************************
               *                     SUCCESS                       *
               *           SCF CONVERGED AFTER  14 CYCLES          *
               *****************************************************

             **** ENERGY FILE WAS UPDATED (job.en.tmp) ****

----------------
TOTAL SCF ENERGY
----------------

Total Energy       :       -324.52241892441305 Eh           -8830.70396 eV

Components:
Nuclear Repulsion  :        299.34541508575398 Eh            8145.60286 eV
Electronic Energy  :       -623.86783401016703 Eh          -16976.30682 eV
One Electron Energy:      -1029.16868055320606 Eh          -28005.10355 eV
Two Electron Energy:        405.30084654303903 Eh           11028.79673 eV

Virial components:
Potential Energy   :       -647.73857842004873 Eh          -17625.86280 eV
Kinetic Energy     :        323.21615949563568 Eh            8795.15884 eV
Virial Ratio       :          2.00404144220640

DFT components:
N(Alpha)           :       27.000019270419 electrons
N(Beta)            :       27.000019270419 electrons
N(Total)           :       54.000038540838 electrons
E(X)               :      -44.871306507549 Eh       
E(C)               :       -1.775457416159 Eh       
E(XC)              :      -46.646763923709 Eh       

---------------
SCF CONVERGENCE
---------------

  Last Energy change         ...   -1.3132e-09  Tolerance :   1.0000e-08
  Last MAX-Density change    ...    2.8513e-05  Tolerance :   1.0000e-07
  Last RMS-Density change    ...    8.1833e-07  Tolerance :   5.0000e-09
  Last DIIS Error            ...    2.1613e-03  Tolerance :   5.0000e-07
  Last Orbital Gradient      ...    1.2532e-05  Tolerance :   1.0000e-05
  Last Orbital Rotation      ...    2.3106e-05  Tolerance :   1.0000e-05


----------------
ORBITAL ENERGIES
----------------

  NO   OCC          E(Eh)            E(eV) 
   0   2.0000     -13.992169      -380.7463 
   1   2.0000      -9.951477      -270.7935 
   2   2.0000      -9.930206      -270.2146 
   3   2.0000      -9.928871      -270.1783 
   4   2.0000      -9.928844      -270.1776 
   5   2.0000      -9.924065      -270.0475 
   6   2.0000      -9.923328      -270.0275 
   7   2.0000      -9.923227      -270.0247 
   8   2.0000      -0.831818       -22.6349 
   9   2.0000      -0.806494       -21.9458 
  10   2.0000      -0.719792       -19.5865 
  11   2.0000      -0.704410       -19.1680 
  12   2.0000      -0.596863       -16.2415 
  13   2.0000      -0.574661       -15.6373 
  14   2.0000      -0.516704       -14.0602 
  15   2.0000      -0.457366       -12.4456 
  16   2.0000      -0.435243       -11.8436 
  17   2.0000      -0.414255       -11.2724 
  18   2.0000      -0.399192       -10.8626 
  19   2.0000      -0.371546       -10.1103 
  20   2.0000      -0.341106        -9.2820 
  21   2.0000      -0.333149        -9.0655 
  22   2.0000      -0.317464        -8.6386 
  23   2.0000      -0.310269        -8.4428 
  24   2.0000      -0.298175        -8.1138 
  25   2.0000      -0.255973        -6.9654 
  26   2.0000      -0.248358        -6.7582 
  27   0.0000      -0.087678        -2.3858 
  28   0.0000      -0.066488        -1.8092 
  29   0.0000      -0.006134        -0.1669 
  30   0.0000       0.009420         0.2563 
  31   0.0000       0.027503         0.7484 
  32   0.0000       0.045517         1.2386 
  33   0.0000       0.047020         1.2795 
  34   0.0000       0.071844         1.9550 
  35   0.0000       0.085149         2.3170 
  36   0.0000       0.097190         2.6447 
  37   0.0000       0.098806         2.6887 
*Only the first 10 virtual orbitals were printed.

                    ********************************
                    * MULLIKEN POPULATION ANALYSIS *
                    ********************************

-----------------------
MULLIKEN ATOMIC CHARGES
-----------------------
   0 C :   -0.056394
   1 C :   -0.220706
   2 C :    0.359434
   3 H :    0.099953
   4 C :   -0.084860
   5 C :   -0.312617
   6 H :    0.108209
   7 N :    0.077112
   8 C :   -0.056566
   9 H :    0.098543
  10 H :    0.099971
  11 C :   -0.220321
  12 H :    0.108240
Sum of atomic charges:    0.0000000

--------------------------------
MULLIKEN REDUCED ORBITAL CHARGES
--------------------------------
  0 C s       :     3.144088  s :     3.144088
      pz      :     0.955648  p :     2.816301
      px      :     0.936592
      py      :     0.924061
      dz2     :     0.004592  d :     0.088991
      dxz     :     0.008915
      dyz     :     0.016909
      dx2y2   :     0.024656
      dxy     :     0.033918
      f0      :     0.001509  f :     0.007014
      f+1     :     0.000596
      f-1     :     0.000544
      f+2     :     0.000876
      f-2     :     0.000395
      f+3     :     0.002274
      f-3     :     0.000820

  1 C s       :     3.266375  s :     3.266375
      pz      :     0.951813  p :     2.856064
      px      :     0.955649
      py      :     0.948601
      dz2     :     0.004791  d :     0.091223
      dxz     :     0.009469
      dyz     :     0.018356
      dx2y2   :     0.023832
      dxy     :     0.034776
      f0      :     0.001476  f :     0.007043
      f+1     :     0.000619
      f-1     :     0.000540
      f+2     :     0.000858
      f-2     :     0.000470
      f+3     :     0.002224
      f-3     :     0.000857

  2 C s       :     3.104775  s :     3.104775
      pz      :     0.971094  p :     2.410909
      px      :     0.786629
      py      :     0.653186
      dz2     :     0.006802  d :     0.116133
      dxz     :     0.024074
      dyz     :     0.017220
      dx2y2   :     0.031453
      dxy     :     0.036584
      f0      :     0.001726  f :     0.008749
      f+1     :     0.000550
      f-1     :     0.000712
      f+2     :     0.000399
      f-2     :     0.001142
      f+3     :     0.002950
      f-3     :     0.001270

  3 H s       :     0.878138  s :     0.878138
      pz      :     0.004927  p :     0.021909
      px      :     0.010741
      py      :     0.006241

  4 C s       :     3.172004  s :     3.172004
      pz      :     0.940861  p :     2.816043
      px      :     0.924593
      py      :     0.950589
      dz2     :     0.004541  d :     0.089863
      dxz     :     0.021475
      dyz     :     0.004801
      dx2y2   :     0.039151
      dxy     :     0.019895
      f0      :     0.001482  f :     0.006951
      f+1     :     0.000494
      f-1     :     0.000612
      f+2     :     0.000170
      f-2     :     0.001121
      f+3     :     0.002256
      f-3     :     0.000815

  5 C s       :     3.241733  s :     3.241733
      pz      :     0.937113  p :     2.972647
      px      :     0.954027
      py      :     1.081506
      dz2     :     0.003021  d :     0.082729
      dxz     :     0.000333
      dyz     :     0.037447
      dx2y2   :     0.011790
      dxy     :     0.030137
      f0      :     0.002394  f :     0.015509
      f+1     :     0.000416
      f-1     :     0.001123
      f+2     :     0.003774
      f-2     :     0.000030
      f+3     :     0.005789
      f-3     :     0.001984

  6 H s       :     0.869818  s :     0.869818
      pz      :     0.004831  p :     0.021973
      px      :     0.010989
      py      :     0.006153

  7 N s       :     3.541504  s :     3.541504
      pz      :     1.059086  p :     3.341148
      px      :     1.041580
      py      :     1.240481
      dz2     :     0.001699  d :     0.038382
      dxz     :     0.000002
      dyz     :     0.015675
      dx2y2   :     0.005097
      dxy     :     0.015909
      f0      :     0.000348  f :     0.001854
      f+1     :     0.000061
      f-1     :    -0.000006
      f+2     :     0.000569
      f-2     :     0.000000
      f+3     :     0.000880
      f-3     :     0.000001

  8 C s       :     3.144162  s :     3.144162
      pz      :     0.955636  p :     2.816381
      px      :     0.936571
      py      :     0.924174
      dz2     :     0.004591  d :     0.089009
      dxz     :     0.008966
      dyz     :     0.016863
      dx2y2   :     0.024567
      dxy     :     0.034022
      f0      :     0.001509  f :     0.007015
      f+1     :     0.000596
      f-1     :     0.000544
      f+2     :     0.000882
      f-2     :     0.000389
      f+3     :     0.002274
      f-3     :     0.000820

  9 H s       :     0.879654  s :     0.879654
      pz      :     0.004834  p :     0.021802
      px      :     0.003963
      py      :     0.013006

 10 H s       :     0.878118  s :     0.878118
      pz      :     0.004928  p :     0.021910
      px      :     0.010767
      py      :     0.006215

 11 C s       :     3.266232  s :     3.266232
      pz      :     0.951743  p :     2.855839
      px      :     0.955757
      py      :     0.948339
      dz2     :     0.004795  d :     0.091206
      dxz     :     0.009411
      dyz     :     0.018415
      dx2y2   :     0.023880
      dxy     :     0.034705
      f0      :     0.001476  f :     0.007044
      f+1     :     0.000619
      f-1     :     0.000539
      f+2     :     0.000852
      f-2     :     0.000476
      f+3     :     0.002223
      f-3     :     0.000859

 12 H s       :     0.869787  s :     0.869787
      pz      :     0.004831  p :     0.021973
      px      :     0.011015
      py      :     0.006127



                     *******************************
                     * LOEWDIN POPULATION ANALYSIS *
                     *******************************

----------------------
LOEWDIN ATOMIC CHARGES
----------------------
   0 C :   -0.123213
   1 C :   -0.074774
   2 C :   -0.148128
   3 H :    0.146380
   4 C :   -0.121206
   5 C :   -0.156406
   6 H :    0.153933
   7 N :    0.075726
   8 C :   -0.123280
   9 H :    0.145345
  10 H :    0.146363
  11 C :   -0.074704
  12 H :    0.153963

-------------------------------
LOEWDIN REDUCED ORBITAL CHARGES
-------------------------------
  0 C s       :     2.770609  s :     2.770609
      pz      :     0.878140  p :     2.931666
      px      :     1.009431
      py      :     1.044095
      dz2     :     0.025600  d :     0.378625
      dxz     :     0.027167
      dyz     :     0.057600
      dx2y2   :     0.119402
      dxy     :     0.148855
      f0      :     0.003086  f :     0.042314
      f+1     :     0.003504
      f-1     :     0.004113
      f+2     :     0.005790
      f-2     :     0.002768
      f+3     :     0.015357
      f-3     :     0.007696

  1 C s       :     2.764023  s :     2.764023
      pz      :     0.866098  p :     2.892600
      px      :     0.991909
      py      :     1.034592
      dz2     :     0.025890  d :     0.376137
      dxz     :     0.028259
      dyz     :     0.059519
      dx2y2   :     0.116283
      dxy     :     0.146185
      f0      :     0.003110  f :     0.042014
      f+1     :     0.003517
      f-1     :     0.003997
      f+2     :     0.005932
      f-2     :     0.003070
      f+3     :     0.014724
      f-3     :     0.007665

  2 C s       :     2.702926  s :     2.702926
      pz      :     0.869707  p :     2.868732
      px      :     1.041710
      py      :     0.957315
      dz2     :     0.034161  d :     0.519474
      dxz     :     0.079665
      dyz     :     0.059712
      dx2y2   :     0.191558
      dxy     :     0.154378
      f0      :     0.003969  f :     0.056996
      f+1     :     0.004467
      f-1     :     0.004573
      f+2     :     0.004871
      f-2     :     0.007680
      f+3     :     0.021778
      f-3     :     0.009659

  3 H s       :     0.794640  s :     0.794640
      pz      :     0.013246  p :     0.058980
      px      :     0.028798
      py      :     0.016936

  4 C s       :     2.771866  s :     2.771866
      pz      :     0.864536  p :     2.923279
      px      :     1.069549
      py      :     0.989193
      dz2     :     0.025868  d :     0.383500
      dxz     :     0.075048
      dyz     :     0.011893
      dx2y2   :     0.167808
      dxy     :     0.102884
      f0      :     0.003079  f :     0.042561
      f+1     :     0.004376
      f-1     :     0.003203
      f+2     :     0.001271
      f-2     :     0.007473
      f+3     :     0.015490
      f-3     :     0.007669

  5 C s       :     2.817046  s :     2.817046
      pz      :     0.864972  p :     2.860585
      px      :     0.843040
      py      :     1.152572
      dz2     :     0.041057  d :     0.419698
      dxz     :     0.000526
      dyz     :     0.132867
      dx2y2   :     0.118801
      dxy     :     0.126446
      f0      :     0.006311  f :     0.059078
      f+1     :     0.001089
      f-1     :     0.009422
      f+2     :     0.010350
      f-2     :     0.000053
      f+3     :     0.015662
      f-3     :     0.016191

  6 H s       :     0.786611  s :     0.786611
      pz      :     0.013216  p :     0.059456
      px      :     0.029495
      py      :     0.016745

  7 N s       :     3.307919  s :     3.307919
      pz      :     1.014672  p :     3.494472
      px      :     1.004270
      py      :     1.475530
      dz2     :     0.011604  d :     0.106243
      dxz     :     0.000003
      dyz     :     0.030034
      dx2y2   :     0.034858
      dxy     :     0.029744
      f0      :     0.001646  f :     0.015641
      f+1     :     0.000281
      f-1     :     0.002557
      f+2     :     0.002732
      f-2     :     0.000000
      f+3     :     0.004175
      f-3     :     0.004250

  8 C s       :     2.770563  s :     2.770563
      pz      :     0.878111  p :     2.931683
      px      :     1.009682
      py      :     1.043890
      dz2     :     0.025605  d :     0.378706
      dxz     :     0.027363
      dyz     :     0.057423
      dx2y2   :     0.119055
      dxy     :     0.149260
      f0      :     0.003087  f :     0.042329
      f+1     :     0.003509
      f-1     :     0.004110
      f+2     :     0.005827
      f-2     :     0.002733
      f+3     :     0.015364
      f-3     :     0.007699

  9 H s       :     0.795825  s :     0.795825
      pz      :     0.012987  p :     0.058830
      px      :     0.011074
      py      :     0.034768

 10 H s       :     0.794652  s :     0.794652
      pz      :     0.013248  p :     0.058985
      px      :     0.028866
      py      :     0.016871

 11 C s       :     2.764008  s :     2.764008
      pz      :     0.866044  p :     2.892494
      px      :     0.991752
      py      :     1.034699
      dz2     :     0.025901  d :     0.376185
      dxz     :     0.028056
      dyz     :     0.059724
      dx2y2   :     0.116625
      dxy     :     0.145879
      f0      :     0.003110  f :     0.042018
      f+1     :     0.003512
      f-1     :     0.004001
      f+2     :     0.005892
      f-2     :     0.003109
      f+3     :     0.014722
      f-3     :     0.007670

 12 H s       :     0.786585  s :     0.786585
      pz      :     0.013214  p :     0.059452
      px      :     0.029565
      py      :     0.016673



                      *****************************
                      * MAYER POPULATION ANALYSIS *
                      *****************************

  NA   - Mulliken gross atomic population
  ZA   - Total nuclear charge
  QA   - Mulliken gross atomic charge
  VA   - Mayer's total valence
  BVA  - Mayer's bonded valence
  FA   - Mayer's free valence

  ATOM       NA         ZA         QA         VA         BVA        FA
  0 C      6.0564     6.0000    -0.0564     3.9267     3.9267    -0.0000
  1 C      6.2207     6.0000    -0.2207     4.0233     4.0233    -0.0000
  2 C      5.6406     6.0000     0.3594     3.6151     3.6151     0.0000
  3 H      0.9000     1.0000     0.1000     0.9661     0.9661    -0.0000
  4 C      6.0849     6.0000    -0.0849     3.9796     3.9796    -0.0000
  5 C      6.3126     6.0000    -0.3126     4.0843     4.0843     0.0000
  6 H      0.8918     1.0000     0.1082     0.9753     0.9753    -0.0000
  7 N      6.9229     7.0000     0.0771     3.2640     3.2640     0.0000
  8 C      6.0566     6.0000    -0.0566     3.9268     3.9268    -0.0000
  9 H      0.9015     1.0000     0.0985     0.9655     0.9655     0.0000
 10 H      0.9000     1.0000     0.1000     0.9661     0.9661    -0.0000
 11 C      6.2203     6.0000    -0.2203     4.0233     4.0233     0.0000
 12 H      0.8918     1.0000     0.1082     0.9753     0.9753     0.0000

  Mayer bond orders larger than 0.100000
B(  0-C ,  1-C ) :   1.4305 B(  0-C ,  4-C ) :   1.4021 B(  0-C , 10-H ) :   0.9644 
B(  1-C ,  2-C ) :   1.3344 B(  1-C ,  6-H ) :   0.9771 B(  2-C ,  5-C ) :   0.9099 
B(  2-C , 11-C ) :   1.3346 B(  3-H ,  8-C ) :   0.9644 B(  4-C ,  8-C ) :   1.4022 
B(  4-C ,  9-H ) :   0.9622 B(  5-C ,  7-N ) :   3.1281 B(  8-C , 11-C ) :   1.4305 
B( 11-C , 12-H ) :   0.9770 

-------
TIMINGS
-------

Total SCF time: 0 days 0 hours 0 min 9 sec 

Total time                  ....       9.649 sec
Sum of individual times     ....       9.111 sec  ( 94.4%)

SCF preparation             ....       0.020 sec  (  0.2%)
Fock matrix formation       ....       8.993 sec  ( 93.2%)
  Startup                   ....       0.002 sec  (  0.0% of F)
  Split-RI-J                ....       2.681 sec  ( 29.8% of F)
  XC integration            ....       6.813 sec  ( 75.8% of F)
    Basis function eval.    ....       2.116 sec  ( 31.1% of XC)
    Density eval.           ....       1.144 sec  ( 16.8% of XC)
    XC-Functional eval.     ....       0.148 sec  (  2.2% of XC)
    XC-Potential eval.      ....       3.276 sec  ( 48.1% of XC)
Diagonalization             ....       0.000 sec  (  0.0%)
Density matrix formation    ....       0.010 sec  (  0.1%)
Total Energy calculation    ....       0.007 sec  (  0.1%)
Population analysis         ....       0.004 sec  (  0.0%)
Orbital Transformation      ....       0.010 sec  (  0.1%)
Orbital Orthonormalization  ....       0.000 sec  (  0.0%)
DIIS solution               ....       0.043 sec  (  0.4%)
SOSCF solution              ....       0.025 sec  (  0.3%)
Finished LeanSCF after   9.7 sec

Maximum memory used throughout the entire LEANSCF-calculation: 28.6 MB

-------------------------   --------------------
FINAL SINGLE POINT ENERGY      -324.522418924413
-------------------------   --------------------

------------------------------------------------------------------------------
                         ORCA SCF GRADIENT CALCULATION
------------------------------------------------------------------------------

Nuc. rep. gradient        (SHARK) ... done (  0.0 sec)
HCore & Overlap gradient  (SHARK) ... done (  0.1 sec)
Split-RIJ-J gradient      (SHARK) ... done (  0.9 sec)
XC gradient                       ... done (  2.6 sec)

------------------
CARTESIAN GRADIENT
------------------

   1   C   :    0.000982096    0.001905617    0.000000184
   2   C   :    0.010247182   -0.005396397   -0.000000324
   3   C   :   -0.000077885    0.007011549    0.000000069
   4   H   :   -0.002736008   -0.000613241    0.000000035
   5   C   :    0.000085766   -0.004014996   -0.000000087
   6   C   :    0.000057328   -0.014925386   -0.000000223
   7   H   :    0.000608207    0.002667206    0.000000047
   8   N   :   -0.000030115    0.017711677    0.000000230
   9   C   :   -0.001097613    0.001921993   -0.000000077
  10   H   :    0.000014057   -0.002953369   -0.000000051
  11   H   :    0.002753015   -0.000581211   -0.000000059
  12   C   :   -0.010192841   -0.005375480    0.000000209
  13   H   :   -0.000613191    0.002642036    0.000000047

Difference to translation invariance:
           :    0.0000000000   -0.0000000000    0.0000000000

Difference to rotation invariance:
           :    0.0000000047    0.0000000010   -0.0000179465

Norm of the Cartesian gradient     ...    0.0302906280
RMS gradient                       ...    0.0048503823
MAX gradient                       ...    0.0177116768

-------
TIMINGS
-------

Total SCF gradient time     ....        3.642 sec

Densities                   ....       0.000 sec  (  0.0%)
One electron gradient       ....       0.118 sec  (  3.2%)
RI-J Coulomb gradient       ....       0.934 sec  ( 25.7%)
XC gradient                 ....       2.590 sec  ( 71.1%)

Maximum memory used throughout the entire SCFGRAD-calculation: 37.5 MB
------------------------------------------------------------------------------
                         ORCA GEOMETRY RELAXATION STEP
------------------------------------------------------------------------------

Reading the OPT-File                    .... done
Getting information on internals        .... done
Copying old internal coords+grads       .... done
Making the new internal coordinates     .... (2022 redundants) done
Validating the new internal coordinates .... (2022 redundants) done
Calculating the B-matrix                .... done
Calculating the G,G- and P matrices     .... done
Transforming gradient to internals      .... done
Projecting the internal gradient        .... done
Number of atoms                         ....  13
Number of internal coordinates          ....  57
Current Energy                          ....  -324.522418924 Eh
Current gradient norm                   ....     0.030290628 Eh/bohr
Maximum allowed component of the step   ....  0.300
Current trust radius                    ....  0.300
Evaluating the initial hessian          ....  (Almloef) done
Projecting the Hessian                  .... done
Forming the augmented Hessian           .... done
Diagonalizing the augmented Hessian     .... done
Last element of RFO vector              ....  0.999274571
Lowest eigenvalues of augmented Hessian:
 -0.000906566  0.025155785  0.025290558  0.025433180  0.025489976
Length of the computed step             ....  0.038110869
The final length of the internal step   ....  0.038110869
Converting the step to Cartesian space:
 Initial RMS(Int)=    0.0050479079
Transforming coordinates:
 Iter   0:  RMS(Cart)=    0.0090538272 RMS(Int)=    0.8322434533
done
Storing new coordinates                 .... done

                                .--------------------.
          ----------------------|Geometry convergence|-------------------------
          Item                value                   Tolerance       Converged
          ---------------------------------------------------------------------
          RMS gradient        0.0034529869            0.0001000000      NO
          MAX gradient        0.0177116716            0.0003000000      NO
          RMS step            0.0050479079            0.0020000000      NO
          MAX step            0.0164785826            0.0040000000      NO
          -------------------------------------------------------------------------
          ........................................................
          Max(Bonds)      0.0087      Max(Angles)    0.41
          Max(Dihed)        0.00      Max(Improp)    0.00
          ---------------------------------------------------------------------

The optimization has not yet converged - more geometry cycles are needed


    ---------------------------------------------------------------------------
                         Redundant Internal Coordinates
                            (Angstroem and degrees)

        Definition                    Value    dE/dq     Step     New-Value
    ----------------------------------------------------------------------------
     1. B(C   1,C   0)                1.3963 -0.002140  0.0018    1.3981   
     2. B(C   2,C   1)                1.3992 -0.009883  0.0087    1.4080   
     3. B(C   4,C   0)                1.3949 -0.006921  0.0059    1.4008   
     4. B(C   5,C   2)                1.4336 -0.002786  0.0028    1.4364   
     5. B(H   6,C   1)                1.0883 -0.001841  0.0027    1.0910   
     6. B(N   7,C   5)                1.1608 -0.017712  0.0072    1.1680   
     7. B(C   8,H   3)                1.0875 -0.002673  0.0039    1.0914   
     8. B(C   8,C   4)                1.3948 -0.007026  0.0060    1.4008   
     9. B(H   9,C   4)                1.0878 -0.002953  0.0043    1.0920   
    10. B(H  10,C   0)                1.0875 -0.002675  0.0039    1.0914   
    11. B(C  11,C   8)                1.3962 -0.002201  0.0019    1.3981   
    12. B(C  11,C   2)                1.3993 -0.009868  0.0087    1.4080   
    13. B(H  12,C  11)                1.0883 -0.001826  0.0027    1.0910   
    14. A(C   1,C   0,H  10)          120.04  0.001324   -0.20    119.84   
    15. A(C   4,C   0,H  10)          119.95 -0.000470    0.09    120.04   
    16. A(C   1,C   0,C   4)          120.01 -0.000854    0.11    120.12   
    17. A(C   2,C   1,H   6)          120.53  0.001515   -0.26    120.26   
    18. A(C   0,C   1,C   2)          120.05  0.001131   -0.15    119.91   
    19. A(C   0,C   1,H   6)          119.42 -0.002646    0.41    119.83   
    20. A(C   5,C   2,C  11)          120.09  0.000091   -0.02    120.06   
    21. A(C   1,C   2,C   5)          120.16  0.000259   -0.05    120.11   
    22. A(C   1,C   2,C  11)          119.75 -0.000350    0.07    119.82   
    23. A(C   8,C   4,H   9)          119.94  0.000116   -0.00    119.94   
    24. A(C   0,C   4,H   9)          119.95  0.000134   -0.01    119.94   
    25. A(C   0,C   4,C   8)          120.11 -0.000250    0.01    120.12   
    26. L(C   2,C   5,N   7,C  11, 2) 180.00  0.000000   -0.00    180.00   
    27. L(C   2,C   5,N   7,C  11, 1) 179.94 -0.000073    0.01    179.95   
    28. A(H   3,C   8,C   4)          119.96 -0.000450    0.09    120.05   
    29. A(C   4,C   8,C  11)          120.01 -0.000839    0.11    120.12   
    30. A(H   3,C   8,C  11)          120.03  0.001289   -0.19    119.83   
    31. A(C   8,C  11,H  12)          119.43 -0.002644    0.41    119.84   
    32. A(C   2,C  11,H  12)          120.51  0.001481   -0.26    120.25   
    33. A(C   2,C  11,C   8)          120.06  0.001163   -0.15    119.91   
    34. D(H   6,C   1,C   0,C   4)   -180.00  0.000000   -0.00   -180.00   
    35. D(H   6,C   1,C   0,H  10)     -0.00 -0.000000    0.00      0.00   
    36. D(C   2,C   1,C   0,H  10)   -180.00  0.000000   -0.00   -180.00   
    37. D(C   2,C   1,C   0,C   4)      0.00  0.000000   -0.00      0.00   
    38. D(C  11,C   2,C   1,C   0)     -0.00 -0.000000    0.00      0.00   
    39. D(C   5,C   2,C   1,C   0)   -180.00 -0.000000    0.00   -180.00   
    40. D(C   5,C   2,C   1,H   6)      0.00  0.000000   -0.00      0.00   
    41. D(C  11,C   2,C   1,H   6)   -180.00  0.000000   -0.00   -180.00   
    42. D(H   9,C   4,C   0,H  10)      0.00  0.000000   -0.00     -0.00   
    43. D(H   9,C   4,C   0,C   1)    180.00 -0.000000    0.00    180.00   
    44. D(C   8,C   4,C   0,H  10)    180.00  0.000000   -0.00    180.00   
    45. D(C   8,C   4,C   0,C   1)     -0.00 -0.000000    0.00     -0.00   
    46. D(C  11,C   8,C   4,C   0)     -0.00 -0.000000    0.00      0.00   
    47. D(H   3,C   8,C   4,H   9)      0.00  0.000000   -0.00      0.00   
    48. D(H   3,C   8,C   4,C   0)   -180.00  0.000000   -0.00   -180.00   
    49. D(C  11,C   8,C   4,H   9)    180.00 -0.000000    0.00    180.00   
    50. D(H  12,C  11,C   8,C   4)   -180.00  0.000000   -0.00   -180.00   
    51. D(C   2,C  11,C   8,C   4)      0.00  0.000000   -0.00      0.00   
    52. D(C   2,C  11,C   8,H   3)   -180.00  0.000000   -0.00   -180.00   
    53. D(H  12,C  11,C   2,C   5)     -0.00 -0.000000    0.00     -0.00   
    54. D(H  12,C  11,C   2,C   1)    180.00 -0.000000    0.00    180.00   
    55. D(H  12,C  11,C   8,H   3)     -0.00 -0.000000    0.00      0.00   
    56. D(C   8,C  11,C   2,C   5)    180.00 -0.000000    0.00    180.00   
    57. D(C   8,C  11,C   2,C   1)     -0.00 -0.000000    0.00     -0.00   
    ----------------------------------------------------------------------------

Geometry step timings:
Preparation and reading OPT file:      0.000 s ( 1.560 %)
Internal coordinates            :      0.000 s ( 4.495 %)
B/P matrices and projection     :      0.000 s (20.826 %)
Hessian update/contruction      :      0.000 s (25.872 %)
Making the step                 :      0.000 s (17.156 %)
Converting the step to Cartesian:      0.000 s ( 2.110 %)
Storing new data                :      0.000 s ( 4.312 %)
Checking convergence            :      0.000 s ( 2.569 %)
Final printing                  :      0.000 s (21.101 %)
Total time                      :      0.001 s

Time for energy+gradient        :     14.181 s
Time for complete geometry iter :     14.218 s

         *************************************************************
         *                GEOMETRY OPTIMIZATION CYCLE   2            *
         *************************************************************
---------------------------------
CARTESIAN COORDINATES (ANGSTROEM)
---------------------------------
  C     -3.766013    2.331586   -0.000053
  C     -3.767887    0.933481   -0.000070
  C     -2.548369    0.229837   -0.000094
  H     -0.394203    2.883612   -0.000090
  C     -2.553374    3.032883   -0.000060
  C     -2.545099   -1.206545   -0.000112
  H     -4.715061    0.392109   -0.000064
  N     -2.541340   -2.374526   -0.000128
  C     -1.338239    2.336011   -0.000085
  H     -2.555343    4.124928   -0.000047
  H     -4.711916    2.875946   -0.000034
  C     -1.331355    0.937948   -0.000101
  H     -0.382328    0.399834   -0.000120

----------------------------
CARTESIAN COORDINATES (A.U.)
----------------------------
  NO LB      ZA    FRAG     MASS         X           Y           Z
   0 C     6.0000    0    12.011   -7.116734    4.406058   -0.000100
   1 C     6.0000    0    12.011   -7.120275    1.764024   -0.000132
   2 C     6.0000    0    12.011   -4.815720    0.434329   -0.000178
   3 H     1.0000    0     1.008   -0.744935    5.449237   -0.000170
   4 C     6.0000    0    12.011   -4.825177    5.731319   -0.000114
   5 C     6.0000    0    12.011   -4.809541   -2.280039   -0.000212
   6 H     1.0000    0     1.008   -8.910175    0.740979   -0.000121
   7 N     7.0000    0    14.007   -4.802436   -4.487203   -0.000241
   8 C     6.0000    0    12.011   -2.528904    4.414421   -0.000160
   9 H     1.0000    0     1.008   -4.828899    7.794984   -0.000090
  10 H     1.0000    0     1.008   -8.904230    5.434749   -0.000064
  11 C     6.0000    0    12.011   -2.515896    1.772466   -0.000192
  12 H     1.0000    0     1.008   -0.722494    0.755577   -0.000227

--------------------------------
INTERNAL COORDINATES (ANGSTROEM)
--------------------------------
 C      0   0   0     0.000000000000     0.00000000     0.00000000
 C      1   0   0     1.398105589717     0.00000000     0.00000000
 C      2   1   0     1.407955590947   119.90754318     0.00000000
 H      1   2   3     3.416700075100    99.37465921     0.00000000
 C      1   2   3     1.400825735618   120.11858036     0.00000000
 C      3   2   1     1.436385544338   120.11476318   180.00002741
 H      2   1   3     1.090973270314   119.82757607   179.99999218
 N      6   3   2     1.167986884967   179.94599401   179.96885617
 C      4   1   2     1.091361654989    20.81859704     0.00000000
 H      5   1   2     1.092046284151   119.93846111   179.99997728
 H      1   2   3     1.091356360683   119.84332688   180.00000832
 C      9   4   1     1.398079746221   119.83435702   180.00001513
 H     12   9   4     1.090972002962   119.83608340     0.00000000

---------------------------
INTERNAL COORDINATES (A.U.)
---------------------------
 C      0   0   0     0.000000000000     0.00000000     0.00000000
 C      1   0   0     2.642036670869     0.00000000     0.00000000
 C      2   1   0     2.660650475614   119.90754318     0.00000000
 H      1   2   3     6.456627423688    99.37465921     0.00000000
 C      1   2   3     2.647177001666   120.11858036     0.00000000
 C      3   2   1     2.714375301522   120.11476318   180.00002741
 H      2   1   3     2.061640700322   119.82757607   179.99999218
 N      6   3   2     2.207175340600   179.94599401   179.96885617
 C      4   1   2     2.062374640992    20.81859704     0.00000000
 H      5   1   2     2.063668402612   119.93846111   179.99997728
 H      1   2   3     2.062364636204   119.84332688   180.00000832
 C      9   4   1     2.641987833739   119.83435702   180.00001513
 H     12   9   4     2.061638305373   119.83608340     0.00000000

------------------------------------------------------------------------------
                   ___                                                        
                  /   \      - P O W E R E D   B Y -                         
                 /     \                                                     
                 |  |  |   _    _      __       _____    __    __             
                 |  |  |  | |  | |    /  \     |  _  \  |  |  /  |          
                  \  \/   | |  | |   /    \    | | | |  |  | /  /          
                 / \  \   | |__| |  /  /\  \   | |_| |  |  |/  /          
                |  |  |   |  __  | /  /__\  \  |    /   |      \           
                |  |  |   | |  | | |   __   |  |    \   |  |\   \          
                \     /   | |  | | |  |  |  |  | |\  \  |  | \   \       
                 \___/    |_|  |_| |__|  |__|  |_| \__\ |__|  \__/        
                                                                              
                      - O R C A' S   B I G   F R I E N D -                    
                                      &                                       
                       - I N T E G R A L  F E E D E R -                       
                                                                              
 v1 FN, 2020, v2 2021, v3 2022-2024                                           
------------------------------------------------------------------------------


----------------------
SHARK INTEGRAL PACKAGE
----------------------

Number of atoms                             ...     13
Number of basis functions                   ...    278
Number of shells                            ...    108
Maximum angular momentum                    ...      3
Integral batch strategy                     ... SHARK/LIBINT Hybrid
RI-J (if used) integral strategy            ... SPLIT-RIJ (Revised 2003 algorithm where possible)
Printlevel                                  ...      1
Contraction scheme used                     ... SEGMENTED contraction
Prescreening option                         ... SCHWARTZ
   Thresh                                   ... 2.500e-11
   Tcut                                     ... 2.500e-12
   Tpresel                                  ... 2.500e-12 
Coulomb Range Separation                    ... NOT USED
Exchange Range Separation                   ... NOT USED
Multipole approximations                    ... NOT USED
Finite Nucleus Model                        ... NOT USED
CABS basis                                  ... NOT available
Auxiliary Coulomb fitting basis             ... AVAILABLE
   # of basis functions in Aux-J            ...    447
   # of shells in Aux-J                     ...    145
   Maximum angular momentum in Aux-J        ...      4
Auxiliary J/K fitting basis                 ... NOT available
Auxiliary Correlation fitting basis         ... NOT available
Auxiliary 'external' fitting basis          ... NOT available

Checking pre-screening integrals            ... done (  0.0 sec) Dimension = 108
   => SHARK Basis and OBASIS are compatible. Storing Pre-screening
Shell pair information
Shell pair cut-off parameter TPreSel        ...   2.5e-12
Total number of shell pairs                 ...      5886
Shell pairs after pre-screening             ...      5424
Total number of primitive shell pairs       ...     18336
Primitive shell pairs kept                  ...     12808
          la=0 lb=0:   1347 shell pairs
          la=1 lb=0:   1484 shell pairs
          la=1 lb=1:    421 shell pairs
          la=2 lb=0:    814 shell pairs
          la=2 lb=1:    449 shell pairs
          la=2 lb=2:    131 shell pairs
          la=3 lb=0:    401 shell pairs
          la=3 lb=1:    222 shell pairs
          la=3 lb=2:    122 shell pairs
          la=3 lb=3:     33 shell pairs

Checking whether 4 symmetric matrices of dimension 278 fit in memory
:Max Core in MB      =  16384.00
 MB in use           =      9.46
 MB left             =  16374.54
 MB needed           =      1.18
 Data fit in memory  = YES
Calculating RI/J V-Matrix + Cholesky decomp.... done (  0.0 sec)
Calculating Nuclear repulsion               ... done (  0.0 sec) ENN=    298.206715255434 Eh

Diagonalization of the overlap matrix:
Smallest eigenvalue                        ... 9.615e-06
Time for diagonalization                   ...    0.004 sec
Threshold for overlap eigenvalues          ... 1.000e-07
Number of eigenvalues below threshold      ... 0
Time for construction of square roots      ...    0.001 sec
Total time needed                          ...    0.005 sec

-------------------
DFT GRID GENERATION
-------------------

General Integration Accuracy     IntAcc      ... 4.388
Radial Grid Type                 RadialGrid  ... OptM3 with GC (2021)
Angular Grid (max. ang.)         AngularGrid ... 4 (Lebedev-302)
Angular grid pruning method      GridPruning ... 4 (adaptive)
Weight generation scheme         WeightScheme... mBecke (2022)
Basis function cutoff            BFCut       ... 1.0000e-11
Integration weight cutoff        WCut        ... 1.0000e-14
Partially contracted basis set               ... off
Rotationally invariant grid construction     ... off
Angular grids for H and He will be reduced by one unit

Total number of grid points                  ...    64342
Total number of batches                      ...     1009
Average number of points per batch           ...       63
Average number of grid points per atom       ...     4949
Grids setup in   0.3 sec
Initializing property integral containers    ... done (  0.0 sec)

SHARK setup successfully completed in   0.4 seconds

Maximum memory used throughout the entire STARTUP-calculation: 38.7 MB
Occupation numbers will be reassigned to an Aufbau configuration
             **** ENERGY FILE WAS UPDATED (job.en.tmp) ****
Finished Guess after   0.0 sec
Maximum memory used throughout the entire GUESS-calculation: 24.0 MB
----------------------------------------D-I-I-S--------------------------------------------
Iteration    Energy (Eh)           Delta-E    RMSDP     MaxDP     DIISErr   Damp  Time(sec)
-------------------------------------------------------------------------------------------
               ***  Starting incremental Fock matrix formation  ***
                              *** Initializing SOSCF ***
---------------------------------------S-O-S-C-F--------------------------------------
Iteration    Energy (Eh)           Delta-E    RMSDP     MaxDP     MaxGrad    Time(sec)
--------------------------------------------------------------------------------------
    1    -324.5228654186271342     0.00e+00  1.84e-04  7.88e-03  3.13e-04     0.8
               *** Restarting incremental Fock matrix formation ***
    2    -324.5229539963750085    -8.86e-05  9.15e-05  4.13e-03  4.16e-04     0.8
    3    -324.5229501639912542     3.83e-06  2.91e-05  9.37e-04  6.70e-04     0.6
    4    -324.5229620864940898    -1.19e-05  5.82e-05  3.04e-03  5.07e-04     0.6
    5    -324.5229536243233497     8.46e-06  4.19e-05  2.26e-03  1.11e-03     0.6
    6    -324.5229639557118162    -1.03e-05  1.11e-05  3.05e-04  1.20e-04     0.6
    7    -324.5229630057717713     9.50e-07  7.02e-06  1.85e-04  2.61e-04     0.6
    8    -324.5229642487976207    -1.24e-06  5.88e-06  2.51e-04  4.22e-05     0.6
[...]
      f+2     :     0.000397
      f-2     :     0.001106
      f+3     :     0.002850
      f-3     :     0.001306

  3 H s       :     0.878209  s :     0.878209
      pz      :     0.004877  p :     0.021795
      px      :     0.010739
      py      :     0.006178

  4 C s       :     3.176515  s :     3.176515
      pz      :     0.942035  p :     2.811345
      px      :     0.921247
      py      :     0.948063
      dz2     :     0.004576  d :     0.088855
      dxz     :     0.021146
      dyz     :     0.004739
      dx2y2   :     0.038457
      dxy     :     0.019937
      f0      :     0.001457  f :     0.006880
      f+1     :     0.000507
      f-1     :     0.000613
      f+2     :     0.000165
      f-2     :     0.001101
      f+3     :     0.002193
      f-3     :     0.000845

  5 C s       :     3.238633  s :     3.238633
      pz      :     0.936696  p :     2.960694
      px      :     0.953246
      py      :     1.070752
      dz2     :     0.003208  d :     0.083657
      dxz     :     0.000324
      dyz     :     0.037369
      dx2y2   :     0.012376
      dxy     :     0.030380
      f0      :     0.002355  f :     0.015341
      f+1     :     0.000409
      f-1     :     0.001144
      f+2     :     0.003706
      f-2     :     0.000029
      f+3     :     0.005681
      f-3     :     0.002017

  6 H s       :     0.867649  s :     0.867649
      pz      :     0.004794  p :     0.021896
      px      :     0.010833
      py      :     0.006269

  7 N s       :     3.555317  s :     3.555317
      pz      :     1.061101  p :     3.344316
      px      :     1.042696
      py      :     1.240518
      dz2     :     0.001777  d :     0.038404
      dxz     :     0.000002
      dyz     :     0.015518
      dx2y2   :     0.005331
      dxy     :     0.015777
      f0      :     0.000343  f :     0.001848
      f+1     :     0.000061
      f-1     :     0.000003
      f+2     :     0.000560
      f-2     :     0.000000
      f+3     :     0.000869
      f-3     :     0.000012

  8 C s       :     3.149628  s :     3.149628
      pz      :     0.955830  p :     2.812966
      px      :     0.932671
      py      :     0.924465
      dz2     :     0.004593  d :     0.088430
      dxz     :     0.008834
      dyz     :     0.016903
      dx2y2   :     0.024529
      dxy     :     0.033570
      f0      :     0.001499  f :     0.006970
      f+1     :     0.000600
      f-1     :     0.000546
      f+2     :     0.000876
      f-2     :     0.000386
      f+3     :     0.002226
      f-3     :     0.000836

  9 H s       :     0.878154  s :     0.878154
      pz      :     0.004801  p :     0.021698
      px      :     0.003902
      py      :     0.012995

 10 H s       :     0.878210  s :     0.878210
      pz      :     0.004877  p :     0.021795
      px      :     0.010770
      py      :     0.006148

 11 C s       :     3.267323  s :     3.267323
      pz      :     0.952015  p :     2.852264
      px      :     0.956290
      py      :     0.943959
      dz2     :     0.004770  d :     0.090433
      dxz     :     0.009134
      dyz     :     0.018206
      dx2y2   :     0.023682
      dxy     :     0.034641
      f0      :     0.001454  f :     0.006964
      f+1     :     0.000619
      f-1     :     0.000546
      f+2     :     0.000840
      f-2     :     0.000458
      f+3     :     0.002163
      f-3     :     0.000882

 12 H s       :     0.867653  s :     0.867653
      pz      :     0.004794  p :     0.021896
      px      :     0.010865
      py      :     0.006237



                     *******************************
                     * LOEWDIN POPULATION ANALYSIS *
                     *******************************

----------------------
LOEWDIN ATOMIC CHARGES
----------------------
   0 C :   -0.124761
   1 C :   -0.075387
   2 C :   -0.143120
   3 H :    0.146922
   4 C :   -0.119255
   5 C :   -0.155522
   6 H :    0.153648
   7 N :    0.071361
   8 C :   -0.124758
   9 H :    0.145671
  10 H :    0.146922
  11 C :   -0.075371
  12 H :    0.153649

-------------------------------
LOEWDIN REDUCED ORBITAL CHARGES
-------------------------------
  0 C s       :     2.774235  s :     2.774235
      pz      :     0.879373  p :     2.932867
      px      :     1.008338
      py      :     1.045156
      dz2     :     0.025380  d :     0.376050
      dxz     :     0.026793
      dyz     :     0.057380
      dx2y2   :     0.118414
      dxy     :     0.148084
      f0      :     0.003050  f :     0.041608
      f+1     :     0.003482
      f-1     :     0.004105
      f+2     :     0.005716
      f-2     :     0.002696
      f+3     :     0.014965
      f-3     :     0.007594

  1 C s       :     2.769292  s :     2.769292
      pz      :     0.867897  p :     2.894160
      px      :     0.991010
      py      :     1.035252
      dz2     :     0.025506  d :     0.370921
      dxz     :     0.027261
      dyz     :     0.058781
      dx2y2   :     0.112760
      dxy     :     0.146612
      f0      :     0.003037  f :     0.041014
      f+1     :     0.003454
      f-1     :     0.004002
      f+2     :     0.005815
      f-2     :     0.002941
      f+3     :     0.014263
      f-3     :     0.007501

  2 C s       :     2.709269  s :     2.709269
      pz      :     0.871998  p :     2.868142
      px      :     1.038024
      py      :     0.958120
      dz2     :     0.033811  d :     0.510627
      dxz     :     0.077258
      dyz     :     0.058978
      dx2y2   :     0.188008
      dxy     :     0.152572
      f0      :     0.003846  f :     0.055082
      f+1     :     0.004378
      f-1     :     0.004522
      f+2     :     0.004795
      f-2     :     0.007292
      f+3     :     0.020916
      f-3     :     0.009334

  3 H s       :     0.794588  s :     0.794588
      pz      :     0.013043  p :     0.058490
      px      :     0.028774
      py      :     0.016673

  4 C s       :     2.776681  s :     2.776681
      pz      :     0.866867  p :     2.923699
      px      :     1.066778
      py      :     0.990054
      dz2     :     0.025423  d :     0.377448
      dxz     :     0.073586
      dyz     :     0.011754
      dx2y2   :     0.165158
      dxy     :     0.101526
      f0      :     0.003005  f :     0.041427
      f+1     :     0.004332
      f-1     :     0.003171
      f+2     :     0.001231
      f-2     :     0.007274
      f+3     :     0.014937
      f-3     :     0.007478

  5 C s       :     2.820833  s :     2.820833
      pz      :     0.865728  p :     2.858924
      px      :     0.843657
      py      :     1.149539
      dz2     :     0.040848  d :     0.417561
      dxz     :     0.000504
      dyz     :     0.132218
      dx2y2   :     0.118539
      dxy     :     0.125452
      f0      :     0.006183  f :     0.058204
      f+1     :     0.001066
      f-1     :     0.009368
      f+2     :     0.010132
      f-2     :     0.000048
      f+3     :     0.015314
      f-3     :     0.016092

  6 H s       :     0.786995  s :     0.786995
      pz      :     0.013098  p :     0.059356
      px      :     0.029152
      py      :     0.017106

  7 N s       :     3.314314  s :     3.314314
      pz      :     1.016996  p :     3.494262
      px      :     1.005769
      py      :     1.471497
      dz2     :     0.011576  d :     0.105036
      dxz     :     0.000003
      dyz     :     0.029485
      dx2y2   :     0.034769
      dxy     :     0.029204
      f0      :     0.001584  f :     0.015026
      f+1     :     0.000271
      f-1     :     0.002452
      f+2     :     0.002628
      f-2     :     0.000000
      f+3     :     0.004017
      f-3     :     0.004074

  8 C s       :     2.774236  s :     2.774236
      pz      :     0.879372  p :     2.932867
      px      :     1.008595
      py      :     1.044899
      dz2     :     0.025379  d :     0.376048
      dxz     :     0.026997
      dyz     :     0.057175
      dx2y2   :     0.117983
      dxy     :     0.148513
      f0      :     0.003050  f :     0.041608
      f+1     :     0.003486
      f-1     :     0.004101
      f+2     :     0.005754
      f-2     :     0.002657
      f+3     :     0.014964
      f-3     :     0.007596

  9 H s       :     0.795847  s :     0.795847
      pz      :     0.012851  p :     0.058482
      px      :     0.010853
      py      :     0.034778

 10 H s       :     0.794588  s :     0.794588
      pz      :     0.013043  p :     0.058489
      px      :     0.028853
      py      :     0.016594

 11 C s       :     2.769294  s :     2.769294
      pz      :     0.867894  p :     2.894147
      px      :     0.990897
      py      :     1.035356
      dz2     :     0.025506  d :     0.370917
      dxz     :     0.027051
      dyz     :     0.058989
      dx2y2   :     0.113110
      dxy     :     0.146261
      f0      :     0.003037  f :     0.041014
      f+1     :     0.003450
      f-1     :     0.004006
      f+2     :     0.005773
      f-2     :     0.002983
      f+3     :     0.014254
      f-3     :     0.007510

 12 H s       :     0.786995  s :     0.786995
      pz      :     0.013098  p :     0.059357
      px      :     0.029237
      py      :     0.017022



                      *****************************
                      * MAYER POPULATION ANALYSIS *
                      *****************************

  NA   - Mulliken gross atomic population
  ZA   - Total nuclear charge
  QA   - Mulliken gross atomic charge
  VA   - Mayer's total valence
  BVA  - Mayer's bonded valence
  FA   - Mayer's free valence

  ATOM       NA         ZA         QA         VA         BVA        FA
  0 C      6.0580     6.0000    -0.0580     3.9227     3.9227     0.0000
  1 C      6.2170     6.0000    -0.2170     4.0211     4.0211     0.0000
  2 C      5.6493     6.0000     0.3507     3.6250     3.6250     0.0000
  3 H      0.9000     1.0000     0.1000     0.9664     0.9664     0.0000
  4 C      6.0836     6.0000    -0.0836     3.9693     3.9693     0.0000
  5 C      6.2983     6.0000    -0.2983     4.0812     4.0812     0.0000
  6 H      0.8895     1.0000     0.1105     0.9749     0.9749     0.0000
  7 N      6.9399     7.0000     0.0601     3.2571     3.2571    -0.0000
  8 C      6.0580     6.0000    -0.0580     3.9227     3.9227     0.0000
  9 H      0.8999     1.0000     0.1001     0.9655     0.9655     0.0000
 10 H      0.9000     1.0000     0.1000     0.9664     0.9664     0.0000
 11 C      6.2170     6.0000    -0.2170     4.0210     4.0210     0.0000
 12 H      0.8895     1.0000     0.1105     0.9749     0.9749     0.0000

  Mayer bond orders larger than 0.100000
B(  0-C ,  1-C ) :   1.4331 B(  0-C ,  4-C ) :   1.3962 B(  0-C , 10-H ) :   0.9646 
B(  1-C ,  2-C ) :   1.3354 B(  1-C ,  6-H ) :   0.9740 B(  2-C ,  5-C ) :   0.9136 
B(  2-C , 11-C ) :   1.3354 B(  3-H ,  8-C ) :   0.9646 B(  4-C ,  8-C ) :   1.3962 
B(  4-C ,  9-H ) :   0.9620 B(  5-C ,  7-N ) :   3.1190 B(  8-C , 11-C ) :   1.4331 
B( 11-C , 12-H ) :   0.9740 

-------
TIMINGS
-------

Total SCF time: 0 days 0 hours 0 min 4 sec 

Total time                  ....       4.247 sec
Sum of individual times     ....       3.702 sec  ( 87.2%)

SCF preparation             ....       0.024 sec  (  0.6%)
Fock matrix formation       ....       3.632 sec  ( 85.5%)
  Startup                   ....       0.001 sec  (  0.0% of F)
  Split-RI-J                ....       1.206 sec  ( 33.2% of F)
  XC integration            ....       2.945 sec  ( 81.1% of F)
    Basis function eval.    ....       0.970 sec  ( 32.9% of XC)
    Density eval.           ....       0.525 sec  ( 17.8% of XC)
    XC-Functional eval.     ....       0.069 sec  (  2.3% of XC)
    XC-Potential eval.      ....       1.330 sec  ( 45.1% of XC)
Diagonalization             ....       0.000 sec  (  0.0%)
Density matrix formation    ....       0.004 sec  (  0.1%)
Total Energy calculation    ....       0.004 sec  (  0.1%)
Population analysis         ....       0.011 sec  (  0.3%)
Orbital Transformation      ....       0.005 sec  (  0.1%)
Orbital Orthonormalization  ....       0.000 sec  (  0.0%)
DIIS solution               ....       0.006 sec  (  0.1%)
SOSCF solution              ....       0.016 sec  (  0.4%)
Finished LeanSCF after   4.3 sec

Maximum memory used throughout the entire LEANSCF-calculation: 28.7 MB

-------------------------   --------------------
FINAL SINGLE POINT ENERGY      -324.523040128494
-------------------------   --------------------

                                *** OPTIMIZATION RUN DONE ***


------------------------------------------------------------------------------
                              ORCA PROPERTY CALCULATIONS
------------------------------------------------------------------------------

GBWName                                 ... job.gbw
Number of atoms                         ...     13
Number of basis functions               ...    278
Max core memory                         ...  16384 MB

Electric properties:
Dipole moment                           ... YES
Quadrupole moment                       ...  NO
Static polarizability (Dipole/Dipole)   ...  NO
Static polarizability (Dipole/Quad.)    ...  NO
Static polarizability (Quad./Quad.)     ...  NO
Static polarizability (Velocity)        ...  NO
Static hyperpolarizability              ...  NO

Atomic electric properties:
Dipole moment                           ...  NO
Quadrupole moment                       ...  NO
Static polarizability                   ...  NO

Choice of electric origin               ... Center of mass
Position of electric origin             ...    -4.816964     1.483134    -0.000166

General magnetic properties:
Magnetizability                         ...  NO

EPR properties:
g-Tensor (aka g-matrix)                 ...  NO
Zero-Field splitting spin-orbit         ...  NO
Zero-field splitting spin-spin          ...  NO
Hyperfine couplings                     ...  NO (   0 nuclei)
Quadrupole couplings                    ...  NO (   0 nuclei)
Contact density                         ...  NO (   0 nuclei)

NMR properties:
Chemical shifts                         ...  NO (   0 nuclei)
Spin-rotation constants                 ...  NO (   0 nuclei)
Spin-spin couplings                     ...  NO (   0 nuclei,    0 pairs)

Choice of magnetic origin               ... GIAO
Position of magnetic origin             ...     0.000000     0.000000     0.000000

Properties with geometric perturbations:
SCF Hessian                             ...  NO
IR spectrum                             ...  NO
VCD spectrum                            ...  NO
X-ray spectroscopy properties:
SCF XES/XAS/RIXS spectra                ...  NO

SCF SOC stabilization energy            ...  NO
Diagonal Born-Oppenheimer correction    ...  NO

-------------
DIPOLE MOMENT
-------------

Method             : SCF
Type of density    : Electron Density
Multiplicity       :   1
Irrep              :   0
Energy             :  -324.5230401284939035 Eh
Basis              : AO
                                X                 Y                 Z
Electronic contribution:      0.008718229      -4.491097190      -0.000055089
Nuclear contribution   :     -0.012370138       6.300819917       0.000077593
                        -----------------------------------------
Total Dipole Moment    :     -0.003651909       1.809722727       0.000022504
                        -----------------------------------------
Magnitude (a.u.)       :      1.809726412
Magnitude (Debye)      :      4.599958974



--------------------
Rotational spectrum 
--------------------
 
Rotational constants in cm-1:             0.186961             0.051004             0.040072 
Rotational constants in MHz :          5604.961487          1529.060538          1201.331507 

Dipole components along the rotational axes: 
x,y,z [a.u.] :     1.809726    -0.000053     0.000000 
x,y,z [Debye]:     4.599959    -0.000134     0.000000 

 

Dipole moment calculation done in   0.0 sec 

Maximum memory used throughout the entire PROP-calculation: 21.3 MB

--------------------------------
SUGGESTED CITATIONS FOR THIS RUN
--------------------------------

Below you find a list of papers that are relevant to this ORCA run
We neither can nor want to force you to cite these papers, but we appreciate if you do
You receive ORCA, which is the product of decades of hard work by many enthusiastic individuals, for free
The only thing we kindly ask in return is that you cite our papers,
We deeply appreciate it, if you show your appreciation for ORCA by not just citing the generic ORCA reference.

Please note that relegating all ORCA citations to the supporting information does *not* help us.
SI sections are not indexed - citations you put there will not count into any citation statistics
But we need these citations in order to attract the funding resources that allow us to do what we are doing

Therefore, if you are a happy ORCA user, please consider citing a few of the papers listed below in the main body of your paper

In addition to the list printed below, the program has created the file job.bibtex that contains the list in bibtex format
You can import this file easily into all common literature databanks and citation aid programs


List of essential papers. We consider these as the minimum necessary citations

  1. Neese, F.
     Software update: the ORCA program system, version 6.0
     WIRES Comput. Molec. Sci. 2025 15(1), e70019
     doi.org/10.1002/wcms.7019

List of papers to cite with high priority. The work reported in these papers was absolutely
necessary for this run to complete.
Our perspective: the developers of density functionals and basis sets usually get cited in chemistry papers
Good! But without the algorithms to do something with them, the functionals or basis sets would not do anything.
Hence, in our opinion, the algorithm design and method developments papers are equally worthy of getting cited

  1. Neese, F.
     An improvement of the resolution of the identity approximation for the formation of the Coulomb matrix
     J. Comp. Chem. 2003 24(14), 1740-1747
     doi.org/10.1002/jcc.10318
  2. Neese, F.
     The SHARK Integral Generation and Digestion System
     J. Comp. Chem. 2022 44(3), 381
     doi.org/10.1002/jcc.26942

List of suggested additional citations. These are papers that are important in the 'surrounding' of 
of this run, or papers that preceded the highly important papers. If you like your results we are grateful for a citation.

  1. Neese, F.
     The ORCA program system
     WIRES Comput. Molec. Sci. 2012 2(1), 73-78
     doi.org/10.1002/wcms.81
  2. Neese, F.
     Software update: the ORCA program system, version 4.0
     WIRES Comput. Molec. Sci. 2018 8(1), 1-6
     doi.org/10.1002/wcms.1327
  3. Neese, F.; Wennmohs, F.; Becker, U.; Riplinger, C.
     The ORCA quantum chemistry program package
     J. Chem. Phys. 2020 152(22), 224108
     doi.org/10.1063/5.0004608
  4. Neese, F.
     Software update: The ORCA program system—Version 5.0
     WIRES Comput. Molec. Sci. 2022 12(1), e1606
     doi.org/10.1002/wcms.1606

List of optional additional citations

  1. Neese, F.
     Approximate second-order SCF convergence for spin unrestricted wavefunctions
     Chem. Phys. Lett. 2000 325(1-3), 93-98
     doi.org/10.1016/s0009-2614(00)00662-x

Timings for individual modules:

Sum of individual times          ...       57.722 sec (=   0.962 min)
Startup calculation              ...        2.326 sec (=   0.039 min)   4.0 %
SCF iterations                   ...       37.011 sec (=   0.617 min)  64.1 %
Property calculations            ...        0.057 sec (=   0.001 min)   0.1 %
SCF Gradient evaluation          ...       18.320 sec (=   0.305 min)  31.7 %
Geometry relaxation              ...        0.009 sec (=   0.000 min)   0.0 %
                             ****ORCA TERMINATED NORMALLY****
TOTAL RUN TIME: 0 days 0 hours 0 minutes 57 seconds 996 msec
